135
Lattice="40.3556 0.0 0.0 0.0 40.3556 0.0 0.0 0.0 40.3556" Properties=species:S:1:pos:R:3:Z:I:1:force:R:3 energy=-417.60172405 pbc="T T T"
Al     13.61830000      15.35100000      20.36690000       13       0.20445200       0.18143900      -0.04078300 
Al     16.51330000      26.01000000      21.27650000       13       0.56636100      -0.48515000      -0.14684400 
Al     16.14670000      18.84680000      23.04860000       13       1.07090900      -0.56915200      -1.01524800 
Al     20.84870000      23.13290000      15.75220000       13       0.23474200      -0.58471600       0.69843400 
Al     14.73180000      26.26230000      17.07610000       13       0.56481600       0.09920200      -0.23891000 
Al     21.52180000      23.90200000      21.12170000       13       0.65168800      -1.41647400       0.17802900 
Al     20.71780000      20.87850000      17.22820000       13       0.12682200       0.66151300      -0.08346800 
Al     20.08300000      15.48390000      21.21320000       13       0.20073000      -0.17657700       0.36238300 
Al     16.17270000      15.33260000      22.15820000       13      -0.71891400      -0.38564800      -0.70534200 
Al     19.58860000      18.39530000      25.75990000       13      -0.34369000       0.02282400       1.33853600 
Al     19.03520000      24.02330000      21.82970000       13      -1.16215600       0.08284700       0.70334600 
Al     21.20260000      25.71120000      16.57060000       13       0.10569500       0.06456800       0.83738000 
Al     13.36320000      17.19660000      23.04600000       13      -0.34811800       0.51108500      -0.02700400 
Al     16.37490000      23.18900000      20.68160000       13       0.19796600       0.60186800      -0.71516300 
Al     15.58640000      21.57960000      22.52620000       13       0.84055500      -0.98717300       0.52259200 
Al     12.29390000      18.03160000      20.54740000       13      -0.36156900      -0.62585400       0.16390200 
Al     20.78800000      12.93190000      21.39980000       13      -0.58646700      -0.23262700      -0.04450000 
Al     17.61580000      27.19360000      18.25460000       13      -0.29023700      -0.88756900       0.00247200 
Al     21.26080000      23.47550000      18.40650000       13       0.30938300       0.05093800      -0.22161500 
Al     17.14210000      12.36560000      18.67670000       13       0.03833700       0.45077800      -0.33282300 
Al     23.24610000      14.04440000      16.30450000       13       0.23012700      -1.22352600      -0.57649300 
Al     21.10640000      18.51470000      15.89550000       13       0.89652800      -0.98481800       0.70495600 
Al     13.42780000      24.96800000      19.00160000       13       0.34570900      -0.69110800       0.12265100 
Al     18.26800000      16.48520000      22.82860000       13      -0.02114500       1.35580100       0.37148600 
Al     15.49110000      18.97970000      15.97140000       13      -0.31653600       0.35149100      -0.46599500 
Al     18.56920000      19.94180000      27.79780000       13      -0.29829100      -0.17942500       0.10996000 
Al     26.27380000      17.80740000      15.29640000       13      -0.18417200       0.02057300       0.44753400 
Al     16.07480000      24.17370000      18.16600000       13       0.90558400       0.21873800       0.99545900 
Al     26.69140000      17.42610000      20.17850000       13       0.20839400       0.28895800      -0.60008800 
Al     18.81360000      24.47780000      14.29120000       13       1.22972500       0.33242400      -0.38394700 
Al     23.61660000      22.48570000      20.18570000       13       0.30266700      -0.35608300       0.48347400 
Al     16.64940000      24.48890000      15.44950000       13      -1.24029000       0.37329600       0.34070500 
Al     20.07980000      16.73380000      18.99110000       13      -0.38905000      -1.16780600       0.13854000 
Al     22.01080000      17.09690000      21.15080000       13       0.51158000       1.31857300       0.17502900 
Al     18.60140000      13.68960000      23.21880000       13      -0.36097300      -0.09436500      -0.87316400 
Al     16.66330000      19.63670000      25.92610000       13       0.12661500      -0.70378800       0.32529800 
Al     13.58860000      22.04960000      18.67650000       13       0.62420200       1.03600400       0.33805900 
Al     15.89090000      20.09870000      20.30890000       13       0.17636000      -0.11068900      -0.18884700 
Al     20.04870000      21.09300000      26.08850000       13      -0.40156900       0.75128000       0.20854900 
Al     15.39910000      24.20250000      23.15230000       13       0.75842800       0.41331000       0.69190200 
Al     13.78910000      23.22250000      21.49530000       13      -1.11742200      -0.35667100      -0.84784300 
Al     18.44870000      27.93720000      20.65670000       13       0.15463700      -0.16846200      -0.31284400 
Al     21.09520000      28.81880000      22.21930000       13       0.30930000       0.39873600      -0.58389600 
Al     19.52560000      23.94270000      26.43800000       13       1.15780200       0.39195600      -1.07677400 
Al     19.62100000      26.89310000      22.70750000       13      -1.51683400      -1.13635800       0.84897200 
Al     18.30000000      14.89750000      16.97720000       13       0.10444600      -1.40973600       0.17818400 
Al     24.74630000      16.09150000      21.35780000       13       0.26245100       0.47053100       0.83641300 
Al     13.40610000      20.28430000      21.33430000       13       0.12142300       0.56830300       0.44653500 
Al     18.74000000      24.63650000      17.32970000       13       0.17503500       0.85453100       0.42407900 
Al     18.35100000      20.08230000      23.97390000       13       0.23760200       0.36078300      -0.54304000 
Al     27.16600000      16.07420000      23.18550000       13      -0.79439100       0.19716600      -0.23596300 
Al     24.06720000      21.15140000      24.10150000       13       1.83411300       0.14320300      -0.60206700 
Al     15.72810000      22.00240000      25.34950000       13       1.12459900       0.59519100       0.40567700 
Al     23.26040000      20.60290000      18.29270000       13      -0.16345800      -0.37159600       0.11876200 
Al     23.27370000      19.68790000      21.26980000       13      -0.36041900       0.63195900       0.19531600 
Al     20.56640000      18.36920000      23.52190000       13       0.56154800      -0.49119900      -1.51913800 
Al     27.06380000      23.89190000      20.12200000       13      -0.57094000      -0.63066100       0.06883300 
Al     19.86510000      25.43980000      19.87770000       13      -0.78002400       1.14790500      -0.79601900 
Al     17.77100000      25.51440000      24.23410000       13       0.14479100       0.31777200      -0.37952900 
Al     18.89830000      22.74840000      19.35220000       13       0.26345800       0.41214700      -0.35083400 
Al     26.04950000      19.37050000      17.76450000       13       0.20538400      -0.47181300       0.55703700 
Al     17.65610000      17.60030000      20.27920000       13      -0.84857800      -1.02655200       0.83577400 
Al     21.51060000      18.67410000      18.76020000       13       0.94087300       0.48211000      -0.20824300 
Al     18.10980000      22.97630000      24.16210000       13      -0.23643100      -1.13057900       0.27231600 
Al     18.65400000      17.68720000      14.03390000       13      -0.21497300       0.16474000      -0.08754500 
Al     20.18780000      18.92710000      12.31900000       13       0.52691900      -0.06262100       0.10381600 
Al     13.58860000      21.90700000      24.15510000       13      -1.35191500       0.68128900      -0.75543400 
Al     21.14110000      21.23110000      19.96840000       13       0.09013900       0.04798500       0.83383000 
Al     20.68690000      24.51510000      23.96180000       13      -0.27634900      -0.05521300       0.26875100 
Al     21.70080000      24.93230000      14.16370000       13       0.10335900      -0.11921000      -0.83057400 
Al     20.56960000      21.78060000      23.54080000       13       0.09131700       0.17590900      -0.89008600 
Al     21.95620000      26.14270000      22.21950000       13       1.39269900       0.49996500       0.19318100 
Al     23.74220000      23.42640000      15.49270000       13       0.04402500       0.31319300       0.44003900 
Al     13.26020000      19.59010000      18.61230000       13      -0.03759200      -0.11677200      -0.02675000 
Al     14.24980000      23.56860000      16.42940000       13      -0.25786300      -0.24709300      -0.23000100 
Al     16.93440000      21.54390000      18.24640000       13      -0.83038500      -0.60251500      -0.31721600 
Al     20.25980000      20.39530000      14.63830000       13       0.09391800       0.28341100      -0.96740200 
Al     16.87380000      18.64680000      18.11010000       13       0.09940600       0.53851500      -0.41524200 
Al     20.60590000      15.13080000      15.82510000       13       0.03134100      -0.27526400      -0.06295100 
Al     14.37660000      19.55140000      24.61090000       13      -0.93697700      -0.34605800       0.53225900 
Al     15.41500000      16.51790000      24.54040000       13       0.48613300       0.43746900       0.11510100 
Al     25.22140000      22.00790000      17.60620000       13       0.79186100       0.24514100       0.34391000 
Al     23.13380000      12.27590000      20.46220000       13       0.10294600       0.31332700       0.22472900 
Al     22.90450000      14.49210000      25.07000000       13      -1.22062500      -0.55843100       0.17043400 
Al     23.30170000      22.39160000      13.14970000       13      -0.56645100      -0.23647600       0.07075700 
Al     17.67220000      22.76470000      27.49260000       13      -0.79999300      -1.29511500      -0.23568100 
Al     24.29960000      17.72940000      27.57990000       13      -0.14928400      -0.52681000       0.11151200 
Al     22.32800000      22.43060000      26.05560000       13       0.37197200       0.78184700      -0.03996700 
Al     22.14320000      20.07110000      24.85450000       13      -1.33272800      -1.30460100       0.37070800 
Al     23.88600000      24.24600000      18.21280000       13       0.35200700       0.18851500      -0.41288200 
Al     22.44050000      14.79420000      22.49820000       13       0.48424800      -0.31737800      -0.40091100 
Al     23.81390000      18.44130000      16.55080000       13      -0.22330600       0.59914000       0.18268700 
Al     24.78340000      15.98570000      24.85050000       13       0.85533800       0.29438300      -0.18734400 
Al     22.45160000      26.00340000      19.51620000       13      -0.14245100       0.39520700      -0.15203700 
Al     22.82460000      18.88620000      13.86450000       13       0.37151900       0.56674000      -0.87180900 
Al     25.77640000      20.49630000      20.27550000       13      -0.12271400      -0.46908400      -1.85800800 
Al     16.71630000      16.68120000      15.74870000       13      -0.36441500      -0.10787900      -0.08218700 
Al     19.31070000      19.01460000      21.21260000       13       1.56831200       0.55246200       1.77512800 
Al     26.57350000      23.21220000      15.61600000       13      -0.32065200      -0.25812400      -0.14880300 
Al     19.11120000      19.75770000      18.81540000       13      -0.88987400       0.09090400      -0.24257100 
Al     20.37110000      15.44790000      23.85950000       13       0.75087000       0.57179500       1.30277400 
Al     20.41340000      22.34450000      13.30640000       13       1.31957200       1.64925900      -1.53895300 
Al     24.67030000      24.92710000      20.89590000       13      -0.62492400       0.00445200       0.49522700 
Al     25.94820000      24.18660000      23.84970000       13      -0.47209900       0.08856600      -0.23332400 
Al     20.88770000      14.00200000      18.74300000       13      -0.31555200      -0.09512900      -0.18085100 
Al     19.08480000      17.28330000      16.69810000       13      -0.04335500      -0.07222800       0.54475000 
Al     16.67360000      15.94120000      18.66610000       13      -1.30823500      -0.04041400      -0.38365600 
Al     24.09300000      18.00740000      19.39350000       13      -0.17220800       0.39157900       0.33121900 
Al     24.88870000      13.84580000      22.97550000       13       0.05680300       0.22977000       0.15330100 
Al     26.03610000      18.90270000      22.26250000       13       0.01919900      -0.17786100       0.13860600 
Al     16.00750000      21.52390000      15.38950000       13      -1.10196700       0.57403100       0.68657400 
Al     18.23160000      22.44350000      16.05740000       13       1.02666500      -0.74987300       0.49110600 
Al     18.24820000      21.44840000      21.46390000       13      -0.05898000      -0.62476300       0.70205800 
Al     23.24260000      23.41530000      23.31430000       13      -0.24568900       0.27384600      -0.95863900 
Al     25.74160000      21.95280000      22.24570000       13       0.10423900       0.84429000       0.36054200 
Al     17.97590000      22.08270000      13.32900000       13       0.37535900       2.30237700      -0.16829400 
Al     22.85410000      20.79310000      15.52720000       13      -0.09809300       0.97469500       0.46448000 
Al     26.79510000      20.44200000      24.28350000       13       0.21643900       1.09468700       0.34430800 
Al     18.26090000      14.39620000      19.88020000       13       0.15762900      -0.34759200       0.29141100 
Al     25.58080000      20.43090000      15.33290000       13       0.13120300       0.31143700      -0.24877800 
Al     14.55670000      17.51470000      18.20300000       13      -0.31276600      -0.91489600      -0.15378800 
Al     25.02690000      16.34620000      17.74820000       13       1.43540300      -0.60958600      -0.27182500 
Al     21.84380000      16.65480000      14.03150000       13      -1.83607300      -0.76611300      -0.70090000 
Al     22.28140000      19.83960000      27.85260000       13      -0.45463700      -0.26817200      -0.41107400 
Al     22.49780000      17.50640000      25.49280000       13      -0.58850000      -0.55205200       0.75759800 
Al     14.85200000      17.63960000      20.99210000       13       1.30574300       0.26905200      -0.42735600 
Al     18.41880000      19.64030000      15.98330000       13      -1.74697800       0.16986700       0.80875700 
Al     23.11020000      14.90100000      19.87620000       13      -0.11847700      -0.25181300      -1.11432900 
Al     25.60300000      18.35970000      24.85050000       13       1.87870000      -0.76178700       1.38549200 
Al     22.56890000      16.13030000      17.23820000       13      -1.57960600       1.84906200       1.55922800 
Al     23.78690000      18.16090000      23.40290000       13      -2.10528600      -0.13633000      -2.07072000 
Al     24.06860000      16.36740000      14.96100000       13       1.41915000      -0.31339800       0.09354200 
Al     16.89070000      20.12760000      13.45270000       13      -0.87710600      -3.59995900       0.08136100 
Al     24.49010000      19.96300000      26.45300000       13       0.13198900       1.31877000      -0.32629200 
Al     22.98300000      25.26190000      25.10970000       13       0.28270800       0.04127000       0.35225200 
135
Lattice="40.3556 0.0 0.0 0.0 40.3556 0.0 0.0 0.0 40.3556" Properties=species:S:1:pos:R:3:Z:I:1:force:R:3 energy=-417.59397937 pbc="T T T"
Al     13.61910000      15.35395000      20.36392000       13       0.20008600       0.18566700      -0.03673400 
Al     16.51843000      26.00727000      21.27593000       13       0.56731000      -0.48560900      -0.13920900 
Al     16.14283000      18.85211000      23.05054000       13       1.07033600      -0.58042200      -1.02088100 
Al     20.84862000      23.13576000      15.75364000       13       0.23043700      -0.58863000       0.68925000 
Al     14.73394000      26.25992000      17.07424000       13       0.56118100       0.11085200      -0.23054400 
Al     21.52605000      23.90564000      21.11915000       13       0.62714500      -1.44789600       0.17937700 
Al     20.71996000      20.88035000      17.22800000       13       0.13402700       0.66866700      -0.09786400 
Al     20.07864000      15.48081000      21.21462000       13       0.24682400      -0.13647600       0.36090300 
Al     16.16942000      15.33143000      22.15687000       13      -0.70229600      -0.38456100      -0.69457600 
Al     19.58604000      18.38574000      25.75998000       13      -0.33735600       0.03857900       1.31427000 
Al     19.03471000      24.02119000      21.83128000       13      -1.14664600       0.07755000       0.68392100 
Al     21.20738000      25.71370000      16.56960000       13       0.09880000       0.06054700       0.85881300 
Al     13.36605000      17.19337000      23.04263000       13      -0.34454400       0.50871700      -0.02040700 
Al     16.37805000      23.18750000      20.68073000       13       0.18290100       0.61884600      -0.71397900 
Al     15.59055000      21.57710000      22.52466000       13       0.79158900      -0.95586500       0.53468900 
Al     12.29125000      18.03844000      20.55108000       13      -0.32907600      -0.61807500       0.15440100 
Al     20.78887000      12.92926000      21.39047000       13      -0.61260500      -0.21744700      -0.01339400 
Al     17.61584000      27.18742000      18.25836000       13      -0.30383400      -0.89032300      -0.01441300 
Al     21.25575000      23.47253000      18.40692000       13       0.33441800       0.05852900      -0.22399800 
Al     17.14734000      12.35958000      18.68000000       13       0.03719400       0.46404800      -0.32420400 
Al     23.24161000      14.04226000      16.30486000       13       0.21144400      -1.17271300      -0.55414600 
Al     21.10444000      18.51782000      15.89480000       13       0.92788000      -0.99006300       0.69430600 
Al     13.42840000      24.96380000      19.00063000       13       0.34501400      -0.68509500       0.11654800 
Al     18.26542000      16.48923000      22.82463000       13      -0.00440900       1.34506900       0.39775400 
Al     15.48425000      18.98431000      15.96805000       13      -0.29504200       0.30789100      -0.45271800 
Al     18.57126000      19.94477000      27.79210000       13      -0.30121400      -0.19113800       0.12748800 
Al     26.27617000      17.80869000      15.29752000       13      -0.19387900       0.00754000       0.43758100 
Al     16.07665000      24.17509000      18.16483000       13       0.90235500       0.20353600       0.99676400 
Al     26.69306000      17.42674000      20.17969000       13       0.21264100       0.28502100      -0.60286300 
Al     18.81254000      24.47902000      14.29220000       13       1.24945000       0.31697200      -0.39996000 
Al     23.61776000      22.48461000      20.18696000       13       0.29096600      -0.36920800       0.49527000 
Al     16.65168000      24.49067000      15.44798000       13      -1.26417200       0.37018300       0.35620800 
Al     20.08092000      16.74050000      18.99200000       13      -0.43146100      -1.22846600       0.16408900 
Al     22.00889000      17.09755000      21.14735000       13       0.49939700       1.29382600       0.18492500 
Al     18.59994000      13.69521000      23.22442000       13      -0.38266600      -0.11552900      -0.88353300 
Al     16.66512000      19.63111000      25.92741000       13       0.11434000      -0.69181600       0.31239200 
Al     13.59010000      22.04844000      18.67888000       13       0.62781400       1.05455100       0.34164400 
Al     15.89333000      20.10102000      20.31084000       13       0.15427400      -0.13789200      -0.20717900 
Al     20.05564000      21.09204000      26.08807000       13      -0.43979800       0.72833800       0.22619600 
Al     15.39710000      24.19737000      23.14988000       13       0.77262600       0.42150500       0.70655000 
Al     13.78826000      23.22533000      21.49154000       13      -1.10451000      -0.37462700      -0.84992500 
Al     18.45052000      27.93355000      20.65184000       13       0.17175900      -0.16627900      -0.28384700 
Al     21.08964000      28.81735000      22.22437000       13       0.34250200       0.43759800      -0.60489800 
Al     19.52746000      23.94148000      26.43597000       13       1.12259200       0.37074900      -1.05089800 
Al     19.62792000      26.89338000      22.70762000       13      -1.56457200      -1.16271800       0.84993300 
Al     18.30008000      14.89918000      16.98389000       13       0.14780700      -1.41493100       0.14782300 
Al     24.74853000      16.09259000      21.36087000       13       0.25314800       0.46823400       0.83676400 
Al     13.40282000      20.29197000      21.33445000       13       0.12878600       0.55600800       0.43071800 
Al     18.73869000      24.63875000      17.33324000       13       0.18506700       0.84956400       0.41326300 
Al     18.34954000      20.07680000      23.96958000       13       0.25805400       0.36454700      -0.52542600 
Al     27.16626000      16.07113000      23.18366000       13      -0.79307500       0.19317200      -0.23528600 
Al     24.06817000      21.15579000      24.09856000       13       1.79067300       0.08101900      -0.54131100 
Al     15.72851000      21.99988000      25.34473000       13       1.12862700       0.58140500       0.41688800 
Al     23.25744000      20.60397000      18.29174000       13      -0.16336900      -0.38286200       0.12893000 
Al     23.27242000      19.69017000      21.27085000       13      -0.36482700       0.63407200       0.20033600 
Al     20.56796000      18.36692000      23.52023000       13       0.55478000      -0.48896600      -1.50421800 
Al     27.06859000      23.89756000      20.12014000       13      -0.58082300      -0.62812200       0.07279600 
Al     19.86540000      25.43652000      19.87713000       13      -0.78259100       1.15514200      -0.78831500 
Al     17.77269000      25.51465000      24.23027000       13       0.13548500       0.30143300      -0.38335500 
Al     18.89918000      22.74779000      19.35361000       13       0.27487200       0.43010400      -0.34934800 
Al     26.05278000      19.36640000      17.76683000       13       0.18803600      -0.45617200       0.55218000 
Al     17.65160000      17.60052000      20.28042000       13      -0.85945500      -1.02283800       0.80545300 
Al     21.50901000      18.67251000      18.75643000       13       0.98710700       0.52388500      -0.20576600 
Al     18.11154000      22.97224000      24.16382000       13      -0.24981100      -1.10831000       0.26882600 
Al     18.65586000      17.68427000      14.03551000       13      -0.20329800       0.16813200      -0.09635300 
Al     20.18654000      18.93035000      12.32021000       13       0.52398200      -0.06594300       0.10392200 
Al     13.58490000      21.90638000      24.15525000       13      -1.33342000       0.66907100      -0.77013000 
Al     21.13805000      21.23183000      19.97162000       13       0.10586100       0.04095500       0.83222000 
Al     20.68144000      24.51888000      23.95953000       13      -0.25410800      -0.06321200       0.28764800 
Al     21.69960000      24.93520000      14.16529000       13       0.11215600      -0.12895100      -0.84650500 
Al     20.56807000      21.78187000      23.54505000       13       0.08945100       0.18394700      -0.90432300 
Al     21.95925000      26.13962000      22.21881000       13       1.41079600       0.52876800       0.20380400 
Al     23.74348000      23.42599000      15.49385000       13       0.04070800       0.32218300       0.43938000 
Al     13.26121000      19.59188000      18.60532000       13      -0.05110000      -0.12902200      -0.01225700 
Al     14.25009000      23.57144000      16.42817000       13      -0.25620900      -0.25092900      -0.22361000 
Al     16.93819000      21.54528000      18.25244000       13      -0.84524100      -0.60709700      -0.34156600 
Al     20.25995000      20.39607000      14.63851000       13       0.05931800       0.29209500      -0.95032100 
Al     16.87456000      18.64301000      18.10397000       13       0.07637200       0.53165200      -0.39295000 
Al     20.60358000      15.12827000      15.82627000       13       0.03789100      -0.26501400      -0.05271200 
Al     14.37581000      19.55085000      24.61484000       13      -0.94678400      -0.34194900       0.55124900 
Al     15.41900000      16.52013000      24.54047000       13       0.48312700       0.44025800       0.11242200 
Al     25.21909000      22.00780000      17.60684000       13       0.80927300       0.23046800       0.33445000 
Al     23.13114000      12.27670000      20.46084000       13       0.12520900       0.30115500       0.21283500 
Al     22.90081000      14.49359000      25.07342000       13      -1.23378600      -0.56519500       0.17307700 
Al     23.30138000      22.39027000      13.15200000       13      -0.56898700      -0.23902700       0.06398000 
Al     17.66734000      22.76455000      27.49576000       13      -0.77075200      -1.27216100      -0.25355200 
Al     24.29959000      17.73113000      27.58084000       13      -0.14810400      -0.55898600       0.13817700 
Al     22.33180000      22.42894000      26.05231000       13       0.37665400       0.78642000      -0.03479400 
Al     22.14098000      20.06981000      24.85294000       13      -1.26382500      -1.28528600       0.34545900 
Al     23.88552000      24.24078000      18.21717000       13       0.34411900       0.20086800      -0.43032000 
Al     22.43722000      14.79242000      22.50083000       13       0.51474000      -0.31671000      -0.43224600 
Al     23.81504000      18.43926000      16.54895000       13      -0.23027500       0.64980200       0.19066200 
Al     24.77976000      15.98380000      24.84818000       13       0.86782100       0.29911300      -0.19407600 
Al     22.45388000      26.00166000      19.51619000       13      -0.15758100       0.40617300      -0.16559600 
Al     22.82927000      18.88746000      13.86190000       13       0.35480400       0.55993200      -0.85411300 
Al     25.77365000      20.50097000      20.27819000       13      -0.11915300      -0.48707600      -1.88724400 
Al     16.71848000      16.67741000      15.74534000       13      -0.38203300      -0.07488200      -0.07290900 
Al     19.30856000      19.01526000      21.20976000       13       1.57510500       0.54532300       1.75989400 
Al     26.57204000      23.21290000      15.61620000       13      -0.31759600      -0.26146000      -0.14664300 
Al     19.11196000      19.76169000      18.81000000       13      -0.90966600       0.06627300      -0.21383600 
Al     20.37241000      15.44246000      23.85780000       13       0.71531600       0.61642700       1.32478300 
Al     20.41184000      22.34612000      13.30723000       13       1.34596200       1.65380800      -1.53566900 
Al     24.66744000      24.92909000      20.89471000       13      -0.60156800      -0.00060200       0.49476600 
Al     25.94536000      24.18635000      23.84908000       13      -0.47216600       0.09249800      -0.22940900 
Al     20.88742000      14.00244000      18.74532000       13      -0.30441200      -0.08449700      -0.19390500 
Al     19.08444000      17.28798000      16.69767000       13      -0.03561300      -0.14054300       0.56295500 
Al     16.67532000      15.93663000      18.66398000       13      -1.33322500      -0.00915500      -0.34415500 
Al     24.09398000      18.01005000      19.39965000       13      -0.16795900       0.38433200       0.30861000 
Al     24.89028000      13.84718000      22.97801000       13       0.05002800       0.23082500       0.15362200 
Al     26.03685000      18.90328000      22.26106000       13       0.00320100      -0.18699600       0.15362000 
Al     16.00206000      21.52954000      15.39117000       13      -1.05679500       0.57174100       0.66623800 
Al     18.23344000      22.44555000      16.05929000       13       0.99198500      -0.76888500       0.47862200 
Al     18.24753000      21.44595000      21.45946000       13      -0.04849500      -0.62070500       0.72841600 
Al     23.24037000      23.41451000      23.31300000       13      -0.26371300       0.28978100      -0.96429500 
Al     25.73818000      21.95563000      22.24528000       13       0.11699500       0.85446900       0.36471700 
Al     17.97929000      22.07799000      13.32631000       13       0.40314100       2.38019900      -0.16058000 
Al     22.85891000      20.79507000      15.52829000       13      -0.11259100       0.95755600       0.45674200 
Al     26.79324000      20.44100000      24.28166000       13       0.20224200       1.06536200       0.35249500 
Al     18.26762000      14.39402000      19.88078000       13       0.11924500      -0.36230300       0.26456300 
Al     25.58184000      20.43000000      15.33229000       13       0.13483500       0.31574900      -0.23685800 
Al     14.55143000      17.51251000      18.20351000       13      -0.27826700      -0.92064200      -0.14920400 
Al     25.02479000      16.35401000      17.74548000       13       1.45074800      -0.62504300      -0.25385800 
Al     21.84386000      16.65510000      14.03487000       13      -1.83308400      -0.74326700      -0.70199800 
Al     22.28445000      19.83747000      27.85498000       13      -0.46237200      -0.26680300      -0.41290400 
Al     22.49601000      17.50817000      25.50007000       13      -0.57455100      -0.55469000       0.73371000 