55
Lattice="25.0 0.0 0.0 0.0 25.0 0.0 0.0 0.0 25.0" Properties=species:S:1:pos:R:3:Z:I:1:force:R:3 energy=-161.62167415 pbc="T T T"
Al     12.59934000      12.47235000      12.62954000       13      -0.21576800      -0.57995900      -0.50844800 
Al     15.23200000      12.45317000      10.95296000       13      -2.27037300      -0.17439500      -0.14436600 
Al     15.24324000      12.65349000      13.90632000       13      -1.33490400      -0.69771900      -0.39046900 
Al     10.18112000      12.40732000      10.90664000       13      -0.16727500       1.91886200       2.08647500 
Al     10.12100000      12.11734000      13.65523000       13       0.10606600       0.84317300       0.81582200 
Al     10.88733000      14.72483000      12.56285000       13       0.14620800       0.13331900      -0.25618600 
Al     13.81861000      14.64493000      12.79313000       13       0.94021600       1.29901000      -1.14070800 
Al     10.95463000      10.08611000      12.21505000       13       1.64082300       0.12820400       1.11399600 
Al     13.89134000      10.09479000      12.26980000       13      -0.51865200       0.51813500       0.36421300 
Al     12.57514000      10.87966000      14.86906000       13      -0.75979800       0.41212500      -0.90867300 
Al     12.37966000      14.37067000      14.92470000       13       3.74665500      -5.77101100      -0.11447500 
Al     12.28846000      11.16430000       9.82844000       13       2.18345100      -1.59475600       2.31392600 
Al     12.54177000      13.60828000       9.80697000       13      -0.07742200       2.48037300       1.93184800 
Al     17.39416000      12.64769000       9.53385000       13      -0.16804700      -0.03201400      -0.25890300 
Al     17.33166000      12.43978000      12.20430000       13       1.02916700      -0.10687500       0.89105600 
Al     17.21082000      12.40787000      15.71185000       13      -0.03050300       0.01422900       0.00319600 
Al      7.71393000      12.14739000       9.56439000       13       0.06571900       0.26639500       0.46721900 
Al      7.56819000      12.36462000      12.62234000       13       0.23929000      -0.18865800      -0.46356000 
Al      7.85141000      12.68626000      15.33258000       13       0.17089500      -0.89708800       0.14485600 
Al      9.43773000      17.42104000      12.69511000       13       0.41014100      -0.91816200       0.03073500 
Al     12.40417000      17.31766000      12.27873000       13       0.04689000      -0.60587600       0.21318600 
Al     15.26118000      17.51729000      12.77125000       13       0.31644200      -0.34554500      -1.12427700 
Al      9.48517000       7.84592000      12.57233000       13       0.34754500      -0.56024300      -0.37916900 
Al     12.37098000       7.71749000      12.80761000       13       0.04908400       0.20331200      -0.31791600 
Al     15.49326000       7.95814000      11.97605000       13       0.72708700      -3.40529500       4.71293700 
Al     12.66438000       9.51698000      17.29499000       13      -0.13628700      -0.45316400      -0.48733800 
Al     12.51835000      12.10249000      17.31085000       13       0.41316900       1.28048700      -0.02318500 
Al     12.57142000      15.79600000      17.25114000       13       0.42709000      -0.38687000       0.00775400 
Al     12.33830000       9.39922000       7.82829000       13       0.22331900      -0.01617700       0.35554800 
Al     12.56575000      12.39405000       7.74786000       13       0.18968900      -0.11689400      -2.28818600 
Al     12.51942000      15.69415000       7.50480000       13       0.10395100      -0.57152900       0.78112400 
Al     14.86186000      10.92137000      16.13490000       13       0.40142700       0.40554100       0.36188000 
Al     14.98662000      14.05242000      16.42863000       13      -0.52305300       0.06539500      -0.01992800 
Al     14.88048000      10.71671000       8.48826000       13      -0.14449100       0.04109100       0.37093600 
Al     14.85885000      13.83976000       8.54014000       13       0.20624500      -0.01530200       0.15078100 
Al     10.15342000      11.37702000      16.46252000       13      -0.23670000      -0.61373600      -0.54639100 
Al     10.12412000      13.98532000      16.04385000       13      -0.20433100       0.12800200       0.14460200 
Al     10.06730000      11.01183000       9.06504000       13      -1.03422800      -1.29268200      -3.21232300 
Al     10.03413000      14.06052000       8.56545000       13       0.17538000      -0.05619900       0.25628300 
Al     16.19387000      15.15596000      11.15017000       13       0.08118700      -0.51693300       0.48054900 
Al     16.58581000      14.74552000      14.28077000       13       0.11310300       0.94794400      -0.20147000 
Al      8.29202000      15.04477000      11.43788000       13       0.32607700      -0.19155500      -0.50179700 
Al      8.37429000      14.81414000      14.02014000       13       0.50534800       0.53905900      -0.01154000 
Al     16.32691000       9.76247000      11.01350000       13       1.55306700       3.53920200      -1.61859100 
Al     16.21515000      10.16732000      13.81633000       13       0.13538800       0.02476600      -0.29292400 
Al      8.88238000       9.91595000      10.93538000       13      -1.75378000      -0.25612600       0.12510600 
Al      8.73510000       9.82643000      14.04570000       13      -1.08857000       1.13669400      -0.09418500 
Al     11.26122000      16.10611000      14.96432000       13      -3.57488700       5.35375500      -0.61884000 
Al     14.05219000      16.58397000      14.68000000       13      -0.57623500      -0.55131700       1.24312100 
Al     10.73570000       8.67678000      14.98679000       13       1.04502100      -0.05032900       0.45783700 
Al     14.05031000       8.64168000      14.79139000       13      -0.18457400      -0.18313500      -0.33796300 
Al     11.04624000      16.48622000       9.92974000       13       0.15398100      -0.61707000       0.39514600 
Al     14.37337000      16.52237000       9.83434000       13      -0.68673400      -0.23238000       0.06711100 
Al     11.13110000       8.37746000      10.23002000       13       0.37874400      -0.09263200      -0.22936000 
Al     14.23193000       8.40826000      10.26528000       13      -2.98267800       0.42321500      -3.73838300 
55
Lattice="25.0 0.0 0.0 0.0 25.0 0.0 0.0 0.0 25.0" Properties=species:S:1:pos:R:3:Z:I:1:force:R:3 energy=-161.65930403 pbc="T T T"
Al     12.59975000      12.47462000      12.62740000       13      -0.21122800      -0.59449000      -0.49408600 
Al     15.23568000      12.45096000      10.95280000       13      -2.28188500      -0.18313400      -0.14967400 
Al     15.23972000      12.65771000      13.90822000       13      -1.31804300      -0.72140900      -0.39611400 
Al     10.18081000      12.40980000      10.90824000       13      -0.16223300       1.91146600       2.07585700 
Al     10.12249000      12.11546000      13.65412000       13       0.10380000       0.85561500       0.83146400 
Al     10.89051000      14.72784000      12.56106000       13       0.13872300       0.12769600      -0.24781100 
Al     13.82021000      14.64646000      12.79318000       13       0.92334600       1.30996700      -1.12582200 
Al     10.95105000      10.08362000      12.21656000       13       1.67745600       0.13880500       1.11667200 
Al     13.88850000      10.09389000      12.26912000       13      -0.51220000       0.54231600       0.37914700 
Al     12.57284000      10.87197000      14.86924000       13      -0.74736700       0.43900800      -0.92418700 
Al     12.37948000      14.36842000      14.92621000       13       3.64744900      -5.61312800      -0.11378400 
Al     12.29228000      11.16613000       9.82808000       13       2.16479900      -1.62393000       2.32884100 
Al     12.54388000      13.60584000       9.80474000       13      -0.08264000       2.52215700       1.96812000 
Al     17.39646000      12.64641000       9.53348000       13      -0.16262800      -0.02851500      -0.26259000 
Al     17.33482000      12.43780000      12.20340000       13       1.02423400      -0.10404500       0.90989800 
Al     17.20851000      12.41338000      15.71510000       13      -0.03563800       0.02147300       0.00111800 
Al      7.71448000      12.14528000       9.55723000       13       0.06255300       0.26765200       0.47589500 
Al      7.56806000      12.35966000      12.62562000       13       0.23918200      -0.18813500      -0.47374100 
Al      7.84714000      12.68375000      15.33325000       13       0.18790200      -0.89252600       0.15118900 
Al      9.44177000      17.41606000      12.69809000       13       0.40456600      -0.91548200       0.03344100 
Al     12.40034000      17.31594000      12.27939000       13       0.06237100      -0.60141900       0.21171600 
Al     15.25937000      17.51981000      12.77084000       13       0.30729600      -0.35531700      -1.11722400 
Al      9.48546000       7.84250000      12.57180000       13       0.33109000      -0.54966100      -0.37160600 
Al     12.36871000       7.72062000      12.80466000       13       0.05093900       0.19265100      -0.31472000 
Al     15.48763000       7.96149000      11.97412000       13       0.75776400      -3.43081500       4.78620000 
Al     12.66584000       9.51931000      17.29065000       13      -0.13965700      -0.45859900      -0.46985700 
Al     12.52010000      12.10361000      17.31202000       13       0.40678400       1.27989400      -0.03812400 
Al     12.57268000      15.79704000      17.25042000       13       0.42387900      -0.38716900       0.00196100 
Al     12.33944000       9.39968000       7.82962000       13       0.22025500      -0.01884000       0.35277100 
Al     12.56462000      12.39496000       7.74879000       13       0.18665300      -0.12371100      -2.32637400 
Al     12.52013000      15.69322000       7.50615000       13       0.10508600      -0.56544900       0.78005000 
Al     14.86362000      10.92277000      16.13399000       13       0.39141300       0.40027700       0.35028000 
Al     14.98730000      14.05787000      16.42964000       13      -0.52607000       0.06427800      -0.02264100 
Al     14.87868000      10.71711000       8.48581000       13      -0.13745600       0.04260700       0.36820100 
Al     14.85752000      13.84424000       8.54503000       13       0.22294300      -0.01864500       0.14606900 
Al     10.15464000      11.37249000      16.46381000       13      -0.23736700      -0.60639400      -0.54619700 
Al     10.12505000      13.98430000      16.04606000       13      -0.21736200       0.11588100       0.13938200 
Al     10.06894000      11.01356000       9.06663000       13      -1.02318800      -1.31035900      -3.18348100 
Al     10.03956000      14.05966000       8.56541000       13       0.17271400      -0.05579200       0.25357800 
Al     16.19201000      15.15173000      11.14852000       13       0.08072700      -0.50965500       0.47972700 
Al     16.58502000      14.74787000      14.27810000       13       0.11669300       0.95039100      -0.20316100 
Al      8.29330000      15.04180000      11.43425000       13       0.33420900      -0.19553500      -0.47868500 
Al      8.36963000      14.81296000      14.02456000       13       0.51112600       0.54993400      -0.03777500 
Al     16.32826000       9.76175000      11.01210000       13       1.55899200       3.54525500      -1.61803500 
Al     16.22063000      10.16760000      13.81664000       13       0.11384900       0.04230500      -0.29915000 
Al      8.88208000       9.91735000      10.94106000       13      -1.77648400      -0.23854600       0.08642900 
Al      8.73657000       9.82734000      14.04841000       13      -1.09418900       1.12614900      -0.09488400 
Al     11.25805000      16.11269000      14.96466000       13      -3.47234700       5.18881100      -0.61657600 
Al     14.05087000      16.58564000      14.68323000       13      -0.56692500      -0.55204000       1.22258200 
Al     10.73440000       8.67229000      14.98370000       13       1.04766000      -0.05738100       0.46157700 
Al     14.05036000       8.63915000      14.79020000       13      -0.16945000      -0.17941800      -0.34023800 
Al     11.04669000      16.48965000       9.92775000       13       0.15516800      -0.61949000       0.39181300 
Al     14.37335000      16.52025000       9.83079000       13      -0.68615300      -0.23207300       0.06418300 
Al     11.12856000       8.37830000      10.22952000       13       0.38161000      -0.09648300      -0.23787900 
Al     14.23046000       8.41004000      10.26608000       13      -3.01423800       0.43549600      -3.80649200 
55
Lattice="25.0 0.0 0.0 0.0 25.0 0.0 0.0 0.0 25.0" Properties=species:S:1:pos:R:3:Z:I:1:force:R:3 energy=-161.71505095 pbc="T T T"
Al     12.60013000      12.47685000      12.62522000       13      -0.20396600      -0.60609200      -0.48674200 
Al     15.23915000      12.44873000      10.95263000       13      -2.29316900      -0.18927600      -0.15316900 
Al     15.23609000      12.66186000      13.91008000       13      -1.29354100      -0.74871500      -0.40268900 
Al     10.18050000      12.41246000      10.91001000       13      -0.15990700       1.88414600       2.05890200 
Al     10.12398000      12.11366000      13.65309000       13       0.09939000       0.87076000       0.84765000 
Al     10.89370000      14.73086000      12.55925000       13       0.13183100       0.11595200      -0.23990100 
Al     13.82190000      14.64810000      12.79312000       13       0.91326600       1.32007600      -1.11270500 
Al     10.94762000      10.08114000      12.21818000       13       1.70741600       0.15407600       1.11818500 
Al     13.88561000      10.09305000      12.26847000       13      -0.50034200       0.55835000       0.38957200 
Al     12.57047000      10.86433000      14.86935000       13      -0.73946000       0.45880700      -0.94028200 
Al     12.37962000      14.36567000      14.92771000       13       3.53700300      -5.43413500      -0.10981400 
Al     12.29630000      11.16782000       9.82794000       13       2.12616300      -1.65091600       2.34806000 
Al     12.54598000      13.60362000       9.80268000       13      -0.09037300       2.56287700       2.00559800 
Al     17.39875000      12.64512000       9.53308000       13      -0.16095700      -0.02399600      -0.26786300 
Al     17.33807000      12.43581000      12.20259000       13       1.00494300      -0.10659800       0.92611500 
Al     17.20619000      12.41890000      15.71834000       13      -0.04061900       0.02690200      -0.00266200 
Al      7.71502000      12.14320000       9.55012000       13       0.06349900       0.26808200       0.48827300 
Al      7.56795000      12.35469000      12.62886000       13       0.23641000      -0.18322300      -0.47953400 
Al      7.84288000      12.68117000      15.33393000       13       0.20296200      -0.89710300       0.15699300 
Al      9.44585000      17.41099000      12.70107000       13       0.40135500      -0.91814100       0.03901700 
Al     12.39652000      17.31416000      12.28006000       13       0.07499400      -0.59732900       0.21464200 
Al     15.25758000      17.52230000      12.77032000       13       0.30135200      -0.36548600      -1.10637800 
Al      9.48577000       7.83904000      12.57125000       13       0.31512200      -0.54651000      -0.36229900 
Al     12.36644000       7.72377000      12.80168000       13       0.06171400       0.18874600      -0.30196000 
Al     15.48208000       7.96453000      11.97261000       13       0.79124400      -3.46288600       4.83776500 
Al     12.66728000       9.52160000      17.28627000       13      -0.14239800      -0.46991500      -0.45364300 
Al     12.52189000      12.10484000      17.31318000       13       0.39784600       1.27327100      -0.04693500 
Al     12.57398000      15.79803000      17.24971000       13       0.41932300      -0.38592000      -0.00389400 
Al     12.34059000       9.40014000       7.83099000       13       0.21443500      -0.02080500       0.35067800 
Al     12.56351000      12.39587000       7.74951000       13       0.18695100      -0.13093300      -2.36139700 
Al     12.52086000      15.69224000       7.50758000       13       0.10521900      -0.56541100       0.77689000 
Al     14.86540000      10.92421000      16.13311000       13       0.37813800       0.39542500       0.33653900 
Al     14.98793000      14.06333000      16.43066000       13      -0.52926200       0.06934600      -0.02301400 
Al     14.87688000      10.71751000       8.48339000       13      -0.12355000       0.04451700       0.36696500 
Al     14.85620000      13.84872000       8.54994000       13       0.23252700      -0.02526800       0.14054300 
Al     10.15585000      11.36790000      16.46505000       13      -0.23427900      -0.59748600      -0.54889000 
Al     10.12597000      13.98329000      16.04827000       13      -0.22582000       0.10894800       0.13239400 
Al     10.07050000      11.01517000       9.06793000       13      -1.00538600      -1.31736600      -3.14874600 
Al     10.04499000      14.05879000       8.56540000       13       0.17791000      -0.05341400       0.24871800 
Al     16.19015000      15.14745000      11.14692000       13       0.08070900      -0.50098600       0.48513700 
Al     16.58425000      14.75032000      14.27540000       13       0.12081300       0.95167300      -0.20122500 
Al      8.29461000      15.03881000      11.43057000       13       0.33664900      -0.20481500      -0.45701200 
Al      8.36502000      14.81183000      14.02898000       13       0.52766300       0.55822600      -0.06489100 
Al     16.32975000       9.76134000      11.01055000       13       1.56010200       3.53751300      -1.61817200 
Al     16.22613000      10.16788000      13.81692000       13       0.08588200       0.05947500      -0.30409600 
Al      8.88161000       9.91872000      10.94674000       13      -1.79623400      -0.21635500       0.04838700 
Al      8.73794000       9.82836000      14.05110000       13      -1.10331000       1.11264600      -0.09800600 
Al     11.25457000      16.11973000      14.96494000       13      -3.35828000       5.00295100      -0.62379300 
Al     14.04950000      16.58725000      14.68657000       13      -0.56140900      -0.54962200       1.20554400 
Al     10.73319000       8.66780000      14.98065000       13       1.05040200      -0.06861700       0.46594600 
Al     14.05038000       8.63661000      14.78898000       13      -0.15909900      -0.18154300      -0.34673200 
Al     11.04717000      16.49303000       9.92580000       13       0.15642700      -0.62031900       0.38687100 
Al     14.37327000      16.51811000       9.82723000       13      -0.68557900      -0.23156900       0.06183200 
Al     11.12606000       8.37914000      10.22900000       13       0.38104100      -0.09502200      -0.24288300 
Al     14.22871000       8.41186000      10.26653000       13      -3.04768200       0.44398500      -3.86266000 
55
Lattice="25.0 0.0 0.0 0.0 25.0 0.0 0.0 0.0 25.0" Properties=species:S:1:pos:R:3:Z:I:1:force:R:3 energy=-161.78819444 pbc="T T T"
Al     12.60050000      12.47902000      12.62299000       13      -0.20045900      -0.62065300      -0.47752000 
Al     15.24242000      12.44649000      10.95245000       13      -2.30736200      -0.19020600      -0.15183400 
Al     15.23234000      12.66595000      13.91191000       13      -1.27405200      -0.77636000      -0.41434100 
Al     10.18017000      12.41528000      10.91198000       13      -0.15618600       1.86978500       2.04025100 
Al     10.12549000      12.11194000      13.65214000       13       0.09593300       0.88600100       0.86160200 
Al     10.89690000      14.73389000      12.55742000       13       0.12558700       0.10573700      -0.22954500 
Al     13.82367000      14.64986000      12.79297000       13       0.89623700       1.32880800      -1.10002100 
Al     10.94434000      10.07867000      12.21989000       13       1.73432700       0.16280300       1.12139500 
Al     13.88269000      10.09225000      12.26785000       13      -0.49075000       0.57744500       0.39616700 
Al     12.56803000      10.85672000      14.86937000       13      -0.73204600       0.47344900      -0.94695500 
Al     12.38008000      14.36243000      14.92920000       13       3.41473400      -5.24446800      -0.11566600 
Al     12.30051000      11.16936000       9.82800000       13       2.09894300      -1.67699900       2.35890500 
Al     12.54808000      13.60163000       9.80080000       13      -0.10624900       2.60585100       2.03873300 
Al     17.40102000      12.64383000       9.53266000       13      -0.16469400      -0.01915800      -0.26799100 
Al     17.34142000      12.43381000      12.20186000       13       0.99441800      -0.10833500       0.93835400 
Al     17.20387000      12.42442000      15.72159000       13      -0.04020800       0.02874000      -0.00983400 
Al      7.71558000      12.14113000       9.54305000       13       0.06332000       0.26917300       0.48996700 
Al      7.56786000      12.34971000      12.63206000       13       0.23671800      -0.18984200      -0.48647400 
Al      7.83864000      12.67850000      15.33463000       13       0.22039400      -0.89604200       0.16928800 
Al      9.44996000      17.40584000      12.70406000       13       0.39874100      -0.91629100       0.04210700 
Al     12.39270000      17.31233000      12.28075000       13       0.09285200      -0.58954300       0.21042300 
Al     15.25582000      17.52475000      12.76971000       13       0.28749200      -0.37319300      -1.09132600 
Al      9.48611000       7.83553000      12.57066000       13       0.30475100      -0.54035600      -0.35295900 
Al     12.36418000       7.72693000      12.79868000       13       0.06685200       0.18130700      -0.30281000 
Al     15.47659000       7.96726000      11.97154000       13       0.80831700      -3.46714900       4.87696900 
Al     12.66872000       9.52384000      17.28185000       13      -0.14256400      -0.47717900      -0.44685800 
Al     12.52372000      12.10619000      17.31434000       13       0.39044600       1.27063800      -0.05646000 
Al     12.57532000      15.79900000      17.24900000       13       0.41830300      -0.38579000      -0.01014200 
Al     12.34176000       9.40060000       7.83238000       13       0.20715400      -0.02464500       0.34703400 
Al     12.56242000      12.39676000       7.75002000       13       0.18671000      -0.14419900      -2.39103100 
Al     12.52160000      15.69121000       7.50907000       13       0.10668400      -0.56389300       0.77513900 
Al     14.86723000      10.92568000      16.13226000       13       0.36647500       0.39075900       0.32697000 
Al     14.98851000      14.06879000      16.43167000       13      -0.53674700       0.06870700      -0.02053100 
Al     14.87506000      10.71791000       8.48100000       13      -0.11857700       0.04694700       0.36582000 
Al     14.85491000      13.85320000       8.55486000       13       0.25288800      -0.03058800       0.13141300 
Al     10.15704000      11.36326000      16.46623000       13      -0.23760000      -0.58673800      -0.55021100 
Al     10.12686000      13.98228000      16.05050000       13      -0.23086300       0.10953300       0.11882300 
Al     10.07196000      11.01666000       9.06895000       13      -0.98692100      -1.32813300      -3.10966600 
Al     10.05045000      14.05791000       8.56541000       13       0.17671500      -0.04843200       0.24430300 
Al     16.18830000      15.14313000      11.14535000       13       0.08397500      -0.49294900       0.48226600 
Al     16.58348000      14.75284000      14.27269000       13       0.12370900       0.95822500      -0.20007000 
Al      8.29595000      15.03580000      11.42686000       13       0.34400600      -0.20736200      -0.43162600 
Al      8.36046000      14.81074000      14.03339000       13       0.53042800       0.56190500      -0.08655200 
Al     16.33138000       9.76124000      11.00886000       13       1.55657700       3.52176600      -1.61591300 
Al     16.23163000      10.16816000      13.81718000       13       0.06800500       0.07415500      -0.30550700 
Al      8.88099000       9.92008000      10.95244000       13      -1.80686000      -0.20155700       0.00808700 
Al      8.73921000       9.82947000      14.05379000       13      -1.10542900       1.09591500      -0.10474700 
Al     11.25078000      16.12721000      14.96517000       13      -3.22855700       4.80752700      -0.62167700 
Al     14.04808000      16.58882000      14.69002000       13      -0.55441600      -0.54540900       1.18572800 
Al     10.73208000       8.66330000      14.97764000       13       1.05074200      -0.07641400       0.46868700 
Al     14.05040000       8.63404000      14.78774000       13      -0.14626000      -0.18092500      -0.34937600 
Al     11.04765000      16.49635000       9.92389000       13       0.15752100      -0.62659400       0.38017200 
Al     14.37313000      16.51595000       9.82368000       13      -0.67851800      -0.22456900       0.06718800 
Al     11.12359000       8.37997000      10.22846000       13       0.37974500      -0.09260400      -0.24304100 
Al     14.22669000       8.41373000      10.26664000       13      -3.07540100       0.45227200      -3.91325600 
55
Lattice="25.0 0.0 0.0 0.0 25.0 0.0 0.0 0.0 25.0" Properties=species:S:1:pos:R:3:Z:I:1:force:R:3 energy=-161.87802103 pbc="T T T"
Al     12.60085000      12.48113000      12.62072000       13      -0.19535900      -0.63005700      -0.46554000 
Al     15.24549000      12.44423000      10.95225000       13      -2.31117800      -0.18689400      -0.15825600 
Al     15.22848000      12.66997000      13.91371000       13      -1.25240000      -0.80397900      -0.41447200 
Al     10.17982000      12.41827000      10.91412000       13      -0.15163400       1.85428400       2.01669600 
Al     10.12700000      12.11029000      13.65126000       13       0.09751600       0.89694400       0.87388800 
Al     10.90011000      14.73693000      12.55556000       13       0.11912700       0.09982500      -0.21467200 
Al     13.82552000      14.65173000      12.79271000       13       0.88484000       1.33843900      -1.08689700 
Al     10.94122000      10.07621000      12.22171000       13       1.76541500       0.17245300       1.11880800 
Al     13.87971000      10.09150000      12.26727000       13      -0.47317400       0.59581500       0.40309300 
Al     12.56553000      10.84916000      14.86930000       13      -0.71776600       0.49809500      -0.94800600 
Al     12.38085000      14.35873000      14.93068000       13       3.28463600      -5.04488300      -0.11355100 
Al     12.30490000      11.17074000       9.82828000       13       2.06630800      -1.69808300       2.36865500 
Al     12.55016000      13.59987000       9.79911000       13      -0.11125200       2.63534600       2.06473700 
Al     17.40328000      12.64254000       9.53222000       13      -0.16435100      -0.01720100      -0.27070900 
Al     17.34485000      12.43180000      12.20122000       13       0.98731700      -0.10776900       0.94650200 
Al     17.20155000      12.42993000      15.72483000       13      -0.03940200       0.02547700      -0.01751500 
Al      7.71614000      12.13909000       9.53602000       13       0.06052600       0.26837600       0.49667800 
Al      7.56779000      12.34470000      12.63522000       13       0.23728600      -0.18610600      -0.49097600 
Al      7.83441000      12.67576000      15.33534000       13       0.24116500      -0.88935700       0.16594300 
Al      9.45411000      17.40060000      12.70705000       13       0.39106300      -0.91381200       0.03919400 
Al     12.38889000      17.31045000      12.28146000       13       0.10978900      -0.57928300       0.21178200 
Al     15.25408000      17.52717000      12.76900000       13       0.27503300      -0.38492600      -1.07504400 
Al      9.48648000       7.83197000      12.57003000       13       0.29201900      -0.52894700      -0.34120300 
Al     12.36192000       7.73012000      12.79565000       13       0.07742800       0.16977500      -0.29611300 
Al     15.47118000       7.96968000      11.97090000       13       0.83019900      -3.46980300       4.90261400 
Al     12.67014000       9.52605000      17.27739000       13      -0.14173800      -0.48014900      -0.43564700 
Al     12.52557000      12.10765000      17.31550000       13       0.38940900       1.26908800      -0.06567200 
Al     12.57669000      15.79992000      17.24828000       13       0.41463500      -0.38172800      -0.01727200 
Al     12.34295000       9.40105000       7.83381000       13       0.20522400      -0.02711600       0.34386700 
Al     12.56134000      12.39764000       7.75031000       13       0.18527400      -0.15333900      -2.41440000 
Al     12.52235000      15.69012000       7.51063000       13       0.10367200      -0.56206800       0.77550000 
Al     14.86908000      10.92719000      16.13144000       13       0.35590600       0.38396800       0.31442400 
Al     14.98905000      14.07426000      16.43268000       13      -0.54163100       0.06551700      -0.02041100 
Al     14.87324000      10.71832000       8.47865000       13      -0.11376400       0.04863100       0.36133200 
Al     14.85363000      13.85768000       8.55979000       13       0.26396700      -0.03913200       0.12221600 
Al     10.15820000      11.35857000      16.46737000       13      -0.23333500      -0.57560900      -0.55025300 
Al     10.12774000      13.98129000      16.05274000       13      -0.23852500       0.10228200       0.11455600 