128
Lattice="16.14224916 0.0 0.0 0.0 11.414293845 0.0 0.0 0.0 29.987507114" Properties=species:S:1:pos:R:3:Z:I:1:force:R:3 energy=-439.71927323 pbc="T T T"
Al      2.09229000       1.40605000      10.09715000       13      -0.17094200      -0.75702000      -0.12998300 
Al      6.28180000       1.39166000       9.96488000       13      -0.49158300       0.28817400       0.14201900 
Al     10.32579000       1.54190000       9.92958000       13      -0.18898600      -0.81153300       0.09473400 
Al     14.20585000       1.35727000       9.93014000       13      -0.29637100      -0.18212100       0.36369500 
Al      2.05408000       3.99337000       9.74126000       13      -0.07015200       0.83248500       0.22628800 
Al      5.96900000       4.12844000      10.04714000       13      -0.06692300       0.07540200       0.15451000 
Al      9.95270000       4.06851000      10.21985000       13       1.07571900       0.95800600      -1.08113500 
Al     14.09060000       4.29049000       9.78629000       13      -0.14012100       0.07208800       0.50483000 
Al      1.93612000       7.15057000       9.82735000       13       0.56249400      -0.65289300       0.33179900 
Al      6.10970000       7.04384000       9.95625000       13       0.19969500       0.20495200       0.37161300 
Al      9.99865000       7.41178000       9.99798000       13      -0.25622300      -1.47119500      -0.08433300 
Al     13.96581000       7.25732000       9.81687000       13       0.47727600      -0.35691100       0.01454700 
Al      2.04911000       9.69356000       9.80077000       13      -0.01870400       1.09656000       0.54911100 
Al      6.08287000      10.09828000      10.02571000       13      -0.15561500      -0.32402500      -0.07062800 
Al     10.07156000       9.94234000       9.77822000       13       0.13812400       1.05526800       0.34673900 
Al     14.01649000       9.91841000      10.15857000       13       0.34038500       0.65514500      -0.32433400 
Al      0.05154000      11.14984000      11.47540000       13      -0.78341400       1.29749600      -1.45229800 
Al      3.97780000      11.31276000      11.51854000       13       0.27379200       0.04957900      -0.50878100 
Al      8.22577000       0.13969000      11.30090000       13       0.01284300      -0.37482500      -0.13438900 
Al     12.06031000       0.04969000      11.57312000       13       0.54967600      -0.25190200      -0.83372800 
Al     16.07037000       2.82572000      11.26084000       13       0.25355900       0.27156000      -0.08943200 
Al      3.85613000       2.97545000      11.63022000       13       1.91141000      -0.85897300      -0.96356000 
Al      8.06032000       3.00410000      11.48103000       13      -0.77810600      -2.18831200       0.55845000 
Al     12.00992000       2.90778000      11.65749000       13       0.48677400       0.12976200      -0.34556400 
Al     16.13688000       5.94184000      11.03382000       13      -0.26638700      -1.22205300       0.27222300 
Al      4.15885000       5.72020000      11.38194000       13      -0.30829700       0.03899400      -0.10645800 
Al      8.08489000       5.40901000      11.39384000       13      -0.79003300       2.36352400      -0.16846400 
Al     12.16025000       5.92883000      11.34905000       13      -0.83214000      -1.22301900      -0.28559300 
Al     16.02098000       8.48546000      11.56410000       13       0.84671000      -0.49340600      -1.43888500 
Al      4.08487000       8.48126000      11.50378000       13      -0.27482500       0.13297800      -0.30621800 
Al      8.08569000       8.70602000      11.32148000       13      -0.00078900      -0.53282500      -0.18105400 
Al     12.05754000       8.50190000      11.20726000       13      -0.07544800       0.79377800       0.77127900 
Al      2.06220000       1.46595000      12.85434000       13      -0.12438500      -0.13031600      -0.20564500 
Al      6.01816000       1.21448000      12.79048000       13       0.10137700       0.66185900       0.10066800 
Al     10.03750000       1.30645000      12.82938000       13       0.31044300       0.64604400       0.21696300 
Al     14.18508000       1.70971000      12.87976000       13      -0.11590500      -0.60635400       0.04966500 
Al      2.05641000       4.26919000      12.56576000       13      -1.21621700       0.97638900       0.74342100 
Al      6.04937000       4.28939000      13.22306000       13       0.17174600      -0.09445500      -0.29799900 
Al     10.06005000       4.32559000      12.84837000       13       0.39664300      -0.16447000       1.07742700 
Al     13.94917000       4.45178000      12.96636000       13       0.37465600      -1.43834000      -0.67421000 
Al      2.13644000       6.99753000      13.06399000       13      -0.45797500       0.52074700      -1.59298300 
Al      5.84307000       7.22196000      13.18214000       13       0.82747000      -1.33940600      -3.75801400 
Al      9.94033000       7.04899000      12.86852000       13       0.77905000       0.09910900      -0.69023900 
Al     14.04895000       6.90133000      12.86386000       13       0.24833100       1.66237500      -0.31495200 
Al      1.85844000      10.05855000      12.71566000       13       1.37635100      -1.00892800       0.61658600 
Al      6.28583000       9.87002000      12.80526000       13      -0.89321800       0.59291800      -0.04628300 
Al     10.21093000       9.80288000      12.88769000       13      -0.38164100       0.47602800      -1.35435400 
Al     14.32054000       9.74638000      12.88127000       13      -1.68268900       0.83947200       0.77915600 
Al      0.03898000       0.11727000      14.09482000       13      -0.66591800      -0.07821800       0.83314900 
Al      3.83749000       0.07829000      14.32491000       13       1.13833100      -1.05466700      -0.52535600 
Al      8.10870000       0.05197000      14.17836000       13      -0.08940400      -0.66559100       0.29155300 
Al     12.14152000       0.04396000      14.17321000       13       1.08577500       0.40859500       0.28119200 
Al      0.27987000       2.92465000      14.10166000       13      -1.07003500      -0.36135600      -0.10842700 
Al      4.13405000       2.70737000      14.39842000       13      -0.20989000       0.67496100      -0.30346400 
Al      8.24491000       2.73047000      14.42487000       13      -0.33213300       0.62404400      -0.87767100 
Al     12.16860000       2.97688000      14.56488000       13      -0.48679000      -0.34712000      -1.48881200 
Al     16.10544000       5.59409000      14.14693000       13       0.38892500       0.13591400      -0.02900300 
Al      3.91319000       5.69558000      14.33153000       13       0.55003400      -0.91918000       0.48920600 
Al      8.11263000       5.83122000      14.28231000       13      -0.66222500      -0.77611400       0.30923300 
Al     12.32472000       5.66745000      14.68839000       13      -0.67496700       0.29826300      -1.36837600 
Al      0.09385000       8.43215000      14.11973000       13       0.03567200       0.21888900       0.87140700 
Al      4.10793000       8.52720000      14.38746000       13      -1.95332400       1.39135100      -0.28094300 
Al      8.14211000       8.54980000      14.15334000       13       0.40858500       0.38895200       0.59955000 
Al     11.87946000       8.49374000      14.40882000       13       2.09838300      -1.12612800      -1.07182000 
Al      2.04990000       1.23993000      15.73312000       13      -0.33964800       0.91748200       0.39983900 
Al      6.11114000       1.29421000      15.73021000       13       0.08836600       0.42092300       0.22343400 
Al     10.09764000       1.25534000      15.76082000       13      -0.28607500       0.11473400       0.11465300 
Al     14.20859000       1.58924000      15.86522000       13       0.84135400      -1.00014600      -0.77862600 
Al      1.81113000       4.13969000      15.78440000       13       3.24947000       2.60832700      -1.97272500 
Al      6.13041000       4.35762000      16.28506000       13      -0.55309400       0.63349000      -3.79414600 
Al     10.17454000       4.45070000      15.85025000       13      -0.13391400      -1.94234100      -0.56424300 
Al     14.22218000       4.23307000      15.82099000       13       0.34144900       0.26263700       0.41648100 
Al      1.90186000       7.09841000      15.63434000       13       0.16835200      -0.06725100       1.12954700 
Al      6.06562000       7.48113000      15.42706000       13       0.99742800      -1.47214000       4.02467200 
Al     10.19184000       6.89203000      15.63636000       13      -0.70365300       1.58317400       0.71194200 
Al     14.28781000       7.14358000      15.54549000       13      -0.03194800       0.19912100       1.11546700 
Al      1.91049000      10.08945000      15.59759000       13      -0.05655700      -1.10969300       0.41115300 
Al      6.08581000       9.99434000      15.60941000       13       0.35268700       0.62059100       0.43425800 
Al     10.41050000      10.08259000      15.40338000       13      -2.10824200       0.28409500       2.14197300 
Al     14.15244000       9.88824000      15.83501000       13      -0.13692400       0.13565500      -0.62260700 
Al     16.02337000      11.39708000      17.20968000       13       0.57747000       0.11125700      -0.26326000 
Al      4.16543000      11.23425000      17.08376000       13      -0.48703900       0.51360700       0.43070000 
Al      7.99988000      11.31629000      17.39875000       13       0.75134200       0.37852300      -1.87364700 
Al     12.16743000      11.22516000      17.27161000       13      -0.58585900       0.20643000      -1.53380500 
Al      0.31832000       3.00844000      16.90603000       13      -3.23358700      -3.11627400       2.27782700 
Al      3.96293000       3.04361000      17.02778000       13       0.03067000      -1.13423700       0.80727100 
Al      8.13770000       2.96977000      16.99489000       13       0.51784200      -1.60773700       1.11303300 
Al     12.09776000       2.36738000      16.98028000       13      -0.45099000       1.46235000       1.68825900 
Al     16.10436000       5.51998000      17.37880000       13      -0.07307900       1.24747900      -0.85518700 
Al      3.82104000       5.64114000      17.15354000       13       0.28831700       0.78387700       0.00648200 
Al      8.28732000       5.49177000      17.30841000       13      -0.41920500       1.50089300      -0.11875300 
Al     12.10822000       5.55992000      17.20325000       13       0.78436400       0.40907700       1.06486400 
Al      0.02986000       8.47069000      17.14440000       13      -0.13655800      -0.01697000       0.28158700 
Al      3.97777000       8.57775000      17.23325000       13       0.09116500      -0.14335900      -0.43691400 
Al      8.30903000       8.37505000      17.45389000       13      -1.24083400       0.29498700      -3.10412500 
Al     11.81387000       8.53795000      17.22218000       13       1.29101600      -0.45818200      -0.93137800 
Al      2.05993000       1.33338000      18.52950000       13       0.00807500       0.04975500       0.33147900 
Al      5.97939000       1.33838000      18.68816000       13      -0.04117700       0.42789400      -0.13824300 
Al     10.14246000       1.32285000      18.69566000       13      -0.20094600       0.02698000      -0.09215600 
Al     14.17056000       1.54872000      18.65516000       13      -0.19927200      -0.37551700      -0.00146700 
Al      1.89343000       4.19633000      18.67281000       13       0.75557200       0.04947400       0.77436000 
Al      6.14490000       4.27722000      18.57832000       13      -0.04553000       0.11381700       2.61826600 
Al     10.28056000       4.19162000      18.64278000       13      -1.05742700      -0.05293300      -0.13433100 
Al     14.09414000       4.24771000      18.72554000       13       0.03433500       0.17300300      -0.00775300 
Al      2.14159000       7.25596000      18.75654000       13      -0.65518900      -0.99505600      -0.33304500 
Al      6.05649000       7.23623000      18.51418000       13      -0.02024800      -0.31665700       0.00157900 
Al     10.13753000       7.11441000      18.57527000       13       0.43369700      -1.58678600       0.03920900 
Al     14.21374000       7.01120000      18.87458000       13      -0.59108400       0.85189700      -0.60828800 
Al      1.86688000       9.80538000      18.73444000       13       0.40829100       1.51427900      -0.82659900 
Al      6.17209000      10.08113000      18.65497000       13      -0.93180000      -1.11918900       0.36909700 
Al     10.08707000       9.85292000      18.57209000       13       0.32678400       1.17050800       0.25329300 
Al     14.02289000      10.13378000      18.53866000       13       1.31012400      -1.47176700       0.54599300 
Al     16.01842000      11.36609000      20.04945000       13       0.17827700       0.35843600      -0.11893200 
Al      3.95100000      11.29096000      20.02406000       13       0.03513200       0.67269400      -0.25329200 
Al      8.10787000      11.33825000      19.91685000       13       0.24124600       0.02688000       1.21415700 
Al     12.14149000      11.19708000      19.77639000       13      -0.53227700       0.56208400       1.59266100 
Al     16.03448000       2.82156000      20.03414000       13       0.55593500       0.13007700      -0.07069200 
Al      4.25687000       2.98222000      19.96352000       13      -0.67542800      -0.16134400      -0.00080500 
Al      8.06827000       2.70319000      19.98473000       13       0.09005200       0.35790600      -0.17687300 
Al     12.06339000       2.90198000      19.86342000       13       0.40915800      -0.71182200       0.52839800 
Al      0.07790000       5.93706000      19.97119000       13       0.53456800      -0.72506100       0.78158700 
Al      4.09582000       5.81067000      19.92732000       13       0.11216300      -0.25451100       0.06536000 
Al      8.10474000       5.70904000      20.00216000       13       0.05949400      -0.29772800       0.13351300 
Al     11.99074000       5.71082000      20.06221000       13       0.31183900      -0.77645000       0.04792700 
Al      0.21767000       8.70461000      20.31048000       13      -0.78108500      -0.58457200      -0.02246400 
Al      3.92046000       8.69157000      20.01501000       13       0.79972600      -0.39392100       0.31421700 
Al      8.39960000       8.43948000      19.86155000       13      -1.16794000       0.27152300       2.32971600 
Al     12.01678000       8.24214000      19.90864000       13       0.47319600       1.33538400       0.46310200 
128
Lattice="16.14224916 0.0 0.0 0.0 11.414293845 0.0 0.0 0.0 29.987507114" Properties=species:S:1:pos:R:3:Z:I:1:force:R:3 energy=-439.78763157 pbc="T T T"
Al      2.09283000       1.40827000      10.09488000       13      -0.16791200      -0.77001100      -0.11684900 
Al      6.28563000       1.38963000       9.96450000       13      -0.50498700       0.29643400       0.12947000 
Al     10.32266000       1.54599000       9.93119000       13      -0.18324100      -0.83683400       0.10352600 
Al     14.20570000       1.35953000       9.93127000       13      -0.30612800      -0.19012100       0.35632100 
Al      2.05564000       3.99162000       9.73990000       13      -0.07866500       0.84696200       0.22837200 
Al      5.97218000       4.13137000      10.04520000       13      -0.06964800       0.05311500       0.16129100 
Al      9.95441000       4.07000000      10.21964000       13       1.05234200       0.96821800      -1.08390000 
Al     14.08716000       4.28814000       9.78744000       13      -0.13015800       0.08028200       0.50589100 
Al      1.93365000       7.14966000       9.82644000       13       0.56718500      -0.66185700       0.33087400 
Al      6.10772000       7.03650000       9.95628000       13       0.21313600       0.22875300       0.36576400 
Al      9.99828000       7.41003000       9.99917000       13      -0.25119700      -1.47177000      -0.07721200 
Al     13.96949000       7.25923000       9.81608000       13       0.46607200      -0.34846400       0.01415300 
Al      2.05129000       9.69115000       9.79826000       13      -0.01457900       1.10404800       0.55531200 
Al      6.08523000      10.09707000      10.02511000       13      -0.16253400      -0.32836500      -0.06045100 
Al     10.07467000       9.94060000       9.77706000       13       0.12876200       1.06033300       0.34896200 
Al     14.01446000       9.92381000      10.16140000       13       0.34793000       0.64511900      -0.34104600 
Al      0.05214000      11.14796000      11.46810000       13      -0.74050000       1.28818200      -1.38873800 
Al      3.97783000      11.30807000      11.52143000       13       0.27707400       0.06823600      -0.53359300 
Al      8.22181000       0.13738000      11.30127000       13       0.05403200      -0.37664600      -0.11792400 
Al     12.06435000       0.04501000      11.57565000       13       0.50750300      -0.21047600      -0.84384600 
Al     16.06687000       2.82420000      11.26118000       13       0.27171400       0.28102200      -0.09053700 
Al      3.85468000       2.97787000      11.62958000       13       1.93926200      -0.86931000      -0.97905100 
Al      8.06065000       3.00073000      11.48036000       13      -0.76844000      -2.14041600       0.55435700 
Al     12.00793000       2.91083000      11.65441000       13       0.51124800       0.10084200      -0.34495900 
Al     16.13154000       5.94529000      11.03133000       13      -0.25892100      -1.23472100       0.27187900 
Al      4.16038000       5.72253000      11.37755000       13      -0.32761300       0.02270700      -0.09287200 
Al      8.08662000       5.41024000      11.39469000       13      -0.78957400       2.32581700      -0.16674400 
Al     12.16150000       5.92980000      11.34808000       13      -0.83926500      -1.21517400      -0.28272800 
Al     16.02227000       8.48591000      11.56496000       13       0.82662000      -0.47050900      -1.41631900 
Al      4.08390000       8.48221000      11.50458000       13      -0.26733800       0.12814000      -0.30938100 
Al      8.08652000       8.70518000      11.32244000       13      -0.00969900      -0.52913900      -0.18016400 
Al     12.05933000       8.50334000      11.20617000       13      -0.08339900       0.77858300       0.77201800 
Al      2.06304000       1.47121000      12.85504000       13      -0.12427000      -0.17781200      -0.20821200 
Al      6.01661000       1.21497000      12.78785000       13       0.10300700       0.66684700       0.11578800 
Al     10.03638000       1.31086000      12.83383000       13       0.31728900       0.62398200       0.18533800 
Al     14.18642000       1.70541000      12.88079000       13      -0.13274900      -0.59753000       0.04499200 
Al      2.05737000       4.26834000      12.56767000       13      -1.22649700       1.00360800       0.73890200 
Al      6.05120000       4.29121000      13.22458000       13       0.16342100      -0.10825600      -0.30306800 
Al     10.06543000       4.32480000      12.84815000       13       0.36907600      -0.15578900       1.08025100 
Al     13.94756000       4.44769000      12.96442000       13       0.38543500      -1.40258900      -0.65999800 
Al      2.13578000       6.99981000      13.06104000       13      -0.42855500       0.50244800      -1.57394300 
Al      5.84449000       7.21906000      13.17811000       13       0.79170500      -1.32070500      -3.73512100 
Al      9.93604000       7.04787000      12.87245000       13       0.81951500       0.11186000      -0.71838600 
Al     14.05028000       6.90053000      12.86237000       13       0.24493600       1.65595200      -0.29343500 
Al      1.86396000      10.05877000      12.71578000       13       1.31498600      -0.98855200       0.60952600 
Al      6.28576000       9.87148000      12.81045000       13      -0.90073400       0.58219300      -0.08343900 
Al     10.21255000       9.80375000      12.88992000       13      -0.38362900       0.46999900      -1.36304900 
Al     14.31780000       9.75236000      12.88146000       13      -1.63906900       0.81105400       0.78645800 
Al      0.03786000       0.11896000      14.09763000       13      -0.64648800      -0.09212800       0.79051100 
Al      3.83641000       0.07394000      14.32160000       13       1.14560600      -1.02202900      -0.50697300 
Al      8.10890000       0.04955000      14.17702000       13      -0.09274000      -0.64701800       0.29632000 
Al     12.14220000       0.04740000      14.17104000       13       1.06392100       0.38555900       0.31998100 
Al      0.27996000       2.92265000      14.09798000       13      -1.08785200      -0.32812800      -0.07674000 
Al      4.13171000       2.70830000      14.39768000       13      -0.20274700       0.66471100      -0.29489500 
Al      8.24388000       2.73225000      14.42562000       13      -0.33294400       0.61612200      -0.87932100 
Al     12.16968000       2.97515000      14.56359000       13      -0.49205900      -0.33293700      -1.48908700 
Al     16.10917000       5.59853000      14.14553000       13       0.36529200       0.10709100      -0.03647200 
Al      3.91348000       5.69291000      14.33122000       13       0.54140300      -0.89837700       0.47831100 
Al      8.11382000       5.83135000      14.27945000       13      -0.67140200      -0.79149600       0.33380700 
Al     12.32528000       5.66700000      14.68941000       13      -0.65557500       0.29773500      -1.37602600 
Al      0.09633000       8.42906000      14.12160000       13       0.01170000       0.25389100       0.84593800 
Al      4.10430000       8.52759000      14.38835000       13      -1.92521600       1.36038200      -0.29886400 
Al      8.14081000       8.54859000      14.15054000       13       0.41879600       0.39702000       0.60930500 
Al     11.88096000       8.49061000      14.41007000       13       2.09041600      -1.09721500      -1.06423600 
Al      2.05127000       1.23776000      15.73445000       13      -0.33536600       0.94400800       0.38512800 
Al      6.11009000       1.29678000      15.73119000       13       0.07962700       0.40355400       0.21410800 
Al     10.09481000       1.25485000      15.76103000       13      -0.27097900       0.11357300       0.12056800 
Al     14.20626000       1.58974000      15.86761000       13       0.87631300      -1.02677300      -0.80350300 
Al      1.80718000       4.14286000      15.78249000       13       3.22976000       2.58290700      -1.95943700 
Al      6.12938000       4.35994000      16.28604000       13      -0.56490500       0.62377300      -3.79119100 
Al     10.17329000       4.45151000      15.85357000       13      -0.12626400      -1.93595000      -0.58301700 
Al     14.22442000       4.23070000      15.82052000       13       0.33489200       0.27456500       0.40643000 
Al      1.90281000       7.09809000      15.63534000       13       0.18267500      -0.07062000       1.12861500 
Al      6.06645000       7.48240000      15.42207000       13       0.99070300      -1.48884000       4.02850700 
Al     10.19198000       6.89440000      15.63552000       13      -0.71354800       1.55700600       0.72460500 
Al     14.29075000       7.14472000      15.55030000       13      -0.05017700       0.17074500       1.08662900 
Al      1.91055000      10.08995000      15.59789000       13      -0.06379200      -1.12335100       0.41490100 
Al      6.08638000       9.99146000      15.60477000       13       0.34350100       0.66547500       0.46049800 
Al     10.40847000      10.08070000      15.40451000       13      -2.07747400       0.28784400       2.12414100 
Al     14.15183000       9.88787000      15.83799000       13      -0.14638000       0.13937500      -0.63226500 
Al     16.02643000      11.39881000      17.20974000       13       0.55341500       0.09642800      -0.26853100 
Al      4.16350000      11.23422000      17.08430000       13      -0.46821200       0.49637300       0.41403300 
Al      7.99784000      11.31695000      17.39755000       13       0.75171200       0.38421200      -1.87738000 
Al     12.16458000      11.22639000      17.27414000       13      -0.57514300       0.19468600      -1.55603300 
Al      0.31778000       3.00717000      16.90804000       13      -3.20054300      -3.11525300       2.25491100 
Al      3.95919000       3.04350000      17.03035000       13       0.05341900      -1.13259800       0.77491900 
Al      8.13770000       2.97102000      16.99575000       13       0.50927600      -1.61752500       1.10902600 
Al     12.10058000       2.36620000      16.97793000       13      -0.50185500       1.47816000       1.70347800 
Al     16.10269000       5.51921000      17.37753000       13      -0.06498100       1.25051400      -0.83524900 
Al      3.82063000       5.63719000      17.15698000       13       0.27775600       0.80694200      -0.00858600 
Al      8.28467000       5.49057000      17.31049000       13      -0.41409100       1.51943700      -0.12250700 
Al     12.10914000       5.55836000      17.20194000       13       0.78685700       0.41397500       1.07881700 
Al      0.02693000       8.46922000      17.14268000       13      -0.11184900      -0.00566400       0.29988300 
Al      3.97950000       8.57638000      17.23325000       13       0.07991200      -0.14076200      -0.43766400 
Al      8.31245000       8.37603000      17.45170000       13      -1.23686700       0.28905500      -3.05938200 
Al     11.81183000       8.54157000      17.22434000       13       1.28370300      -0.46261700      -0.92770800 
Al      2.06159000       1.33049000      18.52698000       13       0.00362500       0.06054700       0.34797000 
Al      5.97759000       1.33891000      18.68587000       13      -0.03406000       0.43038600      -0.12987100 
Al     10.14129000       1.32344000      18.69586000       13      -0.18651000       0.02526600      -0.09568000 
Al     14.17115000       1.55178000      18.65105000       13      -0.18486900      -0.38623100       0.02005900 
Al      1.89441000       4.19212000      18.67151000       13       0.74380400       0.07085400       0.77958000 
Al      6.14356000       4.27839000      18.57934000       13      -0.03883000       0.10799400       2.62836500 
Al     10.27825000       4.19317000      18.64185000       13      -1.03597000      -0.06324400      -0.11691700 
Al     14.09194000       4.24754000      18.72511000       13       0.04713900       0.17833300      -0.00533600 
Al      2.14129000       7.25624000      18.75835000       13      -0.67312200      -0.98300500      -0.33450500 
Al      6.05618000       7.23984000      18.51384000       13      -0.00665900      -0.31892500      -0.00126200 
Al     10.13894000       7.11076000      18.57370000       13       0.43010600      -1.54686300       0.05811100 
Al     14.21441000       7.01332000      18.87928000       13      -0.59703400       0.84844400      -0.61980600 
Al      1.86809000       9.80659000      18.73633000       13       0.39307300       1.48407600      -0.82157400 
Al      6.17254000      10.08151000      18.65392000       13      -0.93372800      -1.11891900       0.37052700 
Al     10.08293000       9.85736000      18.57339000       13       0.31970700       1.14472900       0.26894500 
Al     14.02432000      10.13530000      18.54017000       13       1.31903200      -1.47506800       0.52676500 
Al     16.01788000      11.36429000      20.04600000       13       0.18075600       0.37666100      -0.10857600 
Al      3.94926000      11.29041000      20.02313000       13       0.04685100       0.67406000      -0.24760100 
Al      8.10520000      11.34041000      19.91664000       13       0.24284000       0.01820700       1.21251100 
Al     12.14399000      11.19336000      19.77450000       13      -0.55181600       0.57820100       1.62530400 
Al     16.03821000       2.82304000      20.03498000       13       0.54221800       0.11782000      -0.07683400 
Al      4.25531000       2.98138000      19.96210000       13      -0.67692200      -0.15576200       0.00450200 
Al      8.07341000       2.70159000      19.98518000       13       0.07622800       0.36757300      -0.17658300 
Al     12.06417000       2.90122000      19.86305000       13       0.39307700      -0.70851300       0.51979500 
Al      0.07386000       5.93539000      19.97170000       13       0.56218400      -0.72654800       0.77587300 
Al      4.09406000       5.81674000      19.92529000       13       0.12746900      -0.27215400       0.07921000 
Al      8.10487000       5.70931000      20.00485000       13       0.05846800      -0.30392200       0.13048600 
Al     11.99311000       5.70915000      20.06411000       13       0.30366200      -0.77243600       0.04302700 
Al      0.21622000       8.70598000      20.31608000       13      -0.76898300      -0.58983400      -0.04354900 
Al      3.92411000       8.69074000      20.01606000       13       0.79001600      -0.38331000       0.31115800 
Al      8.39736000       8.43691000      19.86588000       13      -1.13894500       0.27387000       2.25716100 
Al     12.02015000       8.24103000      19.90940000       13       0.45021400       1.33596500       0.45756900 
128
Lattice="16.14224916 0.0 0.0 0.0 11.414293845 0.0 0.0 0.0 29.987507114" Properties=species:S:1:pos:R:3:Z:I:1:force:R:3 energy=-439.87224469 pbc="T T T"
Al      2.09336000       1.41042000      10.09259000       13      -0.16152700      -0.78538500      -0.10497000 
Al      6.28942000       1.38763000       9.96413000       13      -0.51676200       0.31163900       0.11468500 
Al     10.31952000       1.55001000       9.93281000       13      -0.18407200      -0.85709400       0.11319000 