16
Lattice="5.707159996 0.0 0.0 -2.853579998 4.94254554 0.0 0.0 0.0 22.959199905" Properties=species:S:1:pos:R:3:Z:I:1:force:R:3 energy=-56.86627015 pbc="T T T"
Al      0.00000000       0.00000000      14.97491000       13       0.00004900       0.00009200       0.11780400 
Al      0.00000000       0.00000000       7.98475000       13      -0.00000300      -0.00006900      -0.11589300 
Al      0.00003000       1.64750000      12.64501000       13      -0.00001300      -0.00002200      -0.14156400 
Al      1.42676000       0.82377000      10.31511000       13       0.00001600       0.00002200       0.14236800 
Al     -1.42679000       2.47127000      14.97491000       13       0.00010800      -0.00003500       0.11782000 
Al     -1.42679000       2.47127000       7.98475000       13      -0.00007800       0.00006400      -0.11584600 
Al     -1.42676000       4.11877000      12.64501000       13       0.00003300      -0.00003800      -0.14156100 
Al     -0.00003000       3.29505000      10.31511000       13      -0.00004900       0.00002600       0.14237300 
Al      2.85358000       0.00000000      14.97491000       13      -0.00003200       0.00001500       0.11780400 
Al      2.85358000       0.00000000       7.98475000       13      -0.00002100      -0.00005400      -0.11586100 
Al      2.85361000       1.64750000      12.64501000       13      -0.00000500      -0.00005800      -0.14156600 
Al      4.28034000       0.82377000      10.31511000       13      -0.00001100       0.00006000       0.14239800 
Al      1.42679000       2.47127000      14.97491000       13      -0.00004500      -0.00008900       0.11784200 
Al      1.42679000       2.47127000       7.98475000       13       0.00002700       0.00009000      -0.11584300 
Al      1.42682000       4.11877000      12.64501000       13      -0.00000800      -0.00001700      -0.14154900 
Al      2.85355000       3.29505000      10.31511000       13       0.00002700       0.00000900       0.14234300 
16
Lattice="5.707159996 0.0 0.0 -2.853579998 4.94254554 0.0 0.0 0.0 22.959199905" Properties=species:S:1:pos:R:3:Z:I:1:force:R:3 energy=-56.86587936 pbc="T T T"
Al      0.00002000       0.00219000      14.97307000       13      -0.01010400      -0.00989200       0.12008300 
Al     -2.85048000       4.94071000       7.98463000       13      -0.01474200       0.00075600      -0.11586900 
Al     -0.00335000       1.65143000      12.64673000       13      -0.00142800      -0.00579100      -0.14643800 
Al      1.42615000       0.82595000      10.31639000       13       0.01993000      -0.00344800       0.14354900 
Al     -1.42583000       2.46965000      14.97388000       13      -0.00134600       0.00051700       0.12295800 
Al     -1.42433000       2.47406000       7.98318000       13      -0.00126000      -0.01755700      -0.11106300 
Al     -1.42576000       4.12014000      12.64514000       13       0.00201000       0.00243200      -0.14466400 
Al     -0.00370000       3.29294000      10.31640000       13       0.00224800       0.01195500       0.13708400 
Al     -0.00284000       4.94183000      14.97429000       13       0.00553300      -0.00103300       0.11952000 
Al     -0.00234000       4.93579000       7.98499000       13       0.01026400       0.01368100      -0.10862200 
Al      2.85280000       1.64608000      12.64636000       13      -0.00118600      -0.00043700      -0.14600100 
Al      4.28322000       0.82565000      10.31464000       13      -0.01557500      -0.00079200       0.13779100 
Al      1.42832000       2.46902000      14.97279000       13       0.00493500       0.00961500       0.12243800 
Al      1.42850000       2.47025000       7.98444000       13       0.00772800       0.00187900      -0.11028200 
Al      1.42920000       4.11714000      12.64414000       13      -0.00065300       0.00586600      -0.13978800 
Al      2.85114000       3.30007000      10.31803000       13      -0.00398200      -0.01033500       0.13086000 
16
Lattice="5.707159996 0.0 0.0 -2.853579998 4.94254554 0.0 0.0 0.0 22.959199905" Properties=species:S:1:pos:R:3:Z:I:1:force:R:3 energy=-56.86481361 pbc="T T T"
Al      0.00005000       0.00439000      14.97124000       13      -0.01657500      -0.01867100       0.12183200 
Al     -2.84737000       4.93888000       7.98449000       13      -0.02746300       0.00251800      -0.11523000 
Al     -0.00672000       1.65537000      12.64845000       13       0.00299100      -0.00893800      -0.15242400 
Al      1.42555000       0.82813000      10.31768000       13       0.03321600      -0.00356500       0.14274700 
Al     -1.42486000       2.46803000      14.97287000       13      -0.00856900      -0.00075700       0.12788300 
Al     -1.42186000       2.47685000       7.98160000       13      -0.00890200      -0.03906200      -0.10590500 
Al     -1.42476000       4.12152000      12.64526000       13      -0.00198100       0.01023000      -0.14693900 
Al     -0.00737000       3.29083000      10.31769000       13       0.00728900       0.02174800       0.13272700 
Al     -0.00568000       4.94111000      14.97369000       13       0.01667800      -0.00041600       0.12041700 
Al     -0.00468000       4.92903000       7.98522000       13       0.02836800       0.03703500      -0.10062200 
Al      2.85198000       1.64465000      12.64771000       13       0.00111500      -0.00464100      -0.15045600 
Al      4.28610000       0.82753000      10.31418000       13      -0.03544000       0.00054200       0.13360900 
Al      1.42985000       2.46677000      14.97068000       13       0.00604600       0.01863900       0.12715100 
Al      1.43021000       2.46923000       7.98412000       13       0.01239400       0.00367000      -0.10496000 
Al      1.43158000       4.11550000      12.64326000       13      -0.00391400       0.01087000      -0.13777400 
Al      2.84873000       3.30510000      10.32095000       13      -0.00431200      -0.01639600       0.11975700 
16
Lattice="5.707159996 0.0 0.0 -2.853579998 4.94254554 0.0 0.0 0.0 22.959199905" Properties=species:S:1:pos:R:3:Z:I:1:force:R:3 energy=-56.86296441 pbc="T T T"
Al      0.00007000       0.00658000      14.96942000       13      -0.02404800      -0.02605800       0.12303600 
Al     -2.84427000       4.93704000       7.98434000       13      -0.04657000       0.00941900      -0.11434400 
Al     -0.01010000       1.65930000      12.65014000       13       0.01496100      -0.02554900      -0.16165500 
Al      1.42494000       0.83031000      10.31899000       13       0.04660700      -0.00158800       0.14183000 
Al     -1.42390000       2.46641000      14.97187000       13      -0.01696200      -0.00220500       0.13266500 
Al     -1.41940000       2.47963000       7.98001000       13      -0.01918000      -0.06322900      -0.10073400 
Al     -1.42375000       4.12289000      12.64537000       13      -0.00488900       0.01737400      -0.14853400 
Al     -0.01104000       3.28872000      10.31900000       13       0.01120800       0.03313200       0.12828000 
Al     -0.00851000       4.94039000      14.97310000       13       0.03074600      -0.00048900       0.12125800 
Al     -0.00702000       4.92228000       7.98545000       13       0.04673500       0.05280600      -0.09507600 
Al      2.85117000       1.64323000      12.64904000       13       0.00118200      -0.00539800      -0.15712100 
Al      4.28897000       0.82941000      10.31373000       13      -0.05448200       0.00148800       0.12931800 
Al      1.43139000       2.46452000      14.96859000       13       0.00751700       0.02895400       0.13178800 
Al      1.43192000       2.46821000       7.98380000       13       0.01780600       0.00470000      -0.09961500 
Al      1.43396000       4.11387000      12.64237000       13      -0.00895500       0.01698800      -0.13069800 
Al      2.84632000       3.31013000      10.32389000       13       0.00356800      -0.05156400       0.09052400 
16
Lattice="5.707159996 0.0 0.0 -2.853579998 4.94254554 0.0 0.0 0.0 22.959199905" Properties=species:S:1:pos:R:3:Z:I:1:force:R:3 energy=-56.85996612 pbc="T T T"
Al      0.00009000       0.00877000      14.96762000       13      -0.03215700      -0.03525900       0.12687400 
Al     -2.84118000       4.93521000       7.98419000       13      -0.05904700       0.01310100      -0.11324900 
Al     -0.01347000       1.66323000      12.65183000       13       0.03649400      -0.05168200      -0.18088200 
Al      1.42434000       0.83249000      10.32030000       13       0.05898800       0.00138400       0.14250000 
Al     -1.42294000       2.46479000      14.97088000       13      -0.02556400      -0.00251500       0.13749400 
Al     -1.41694000       2.48241000       7.97841000       13      -0.03296300      -0.08388100      -0.09425900 
Al     -1.42275000       4.12427000      12.64546000       13      -0.00952500       0.02422100      -0.14927400 
Al     -0.01472000       3.28661000      10.32033000       13       0.04083600       0.06060400       0.10778800 
Al     -0.01135000       4.93967000      14.97251000       13       0.04541400      -0.00180400       0.12193100 
Al     -0.00936000       4.91553000       7.98566000       13       0.07076800       0.08703700      -0.08811000 
Al      2.85036000       1.64181000      12.65035000       13       0.00338500      -0.00802400      -0.16334600 
Al      4.29184000       0.83129000      10.31329000       13      -0.07334100       0.00142400       0.12472000 
Al      1.43292000       2.46227000      14.96650000       13       0.00835400       0.03981100       0.13731800 
Al      1.43363000       2.46718000       7.98346000       13       0.02400900       0.00435600      -0.09406700 
Al      1.43634000       4.11223000      12.64147000       13      -0.01376800       0.02392200      -0.12694100 
Al      2.84391000       3.31515000      10.32684000       13       0.01024900      -0.07425000       0.07277800 
16
Lattice="5.707159996 0.0 0.0 -2.853579998 4.94254554 0.0 0.0 0.0 22.959199905" Properties=species:S:1:pos:R:3:Z:I:1:force:R:3 energy=-56.85583703 pbc="T T T"
Al      0.00011000       0.01095000      14.96582000       13      -0.04033100      -0.04578600       0.12756300 
Al     -2.83809000       4.93338000       7.98402000       13      -0.07125800       0.01729800      -0.11227500 
Al     -0.01685000       1.66716000      12.65350000       13       0.04566600      -0.06350800      -0.18187200 
Al      1.42375000       0.83467000      10.32163000       13       0.06928100       0.00019200       0.13615900 
Al     -1.42198000       2.46317000      14.96990000       13      -0.03489400      -0.00053200       0.14255500 
Al     -1.41448000       2.48518000       7.97681000       13      -0.04205900      -0.10475300      -0.08956500 
Al     -1.42175000       4.12565000      12.64554000       13      -0.01378400       0.03122200      -0.15090800 
Al     -0.01838000       3.28451000      10.32166000       13       0.05141500       0.07767700       0.10247100 
Al     -0.01418000       4.93895000      14.97194000       13       0.06134100      -0.00045100       0.12450500 
Al     -0.01169000       4.90879000       7.98587000       13       0.10298000       0.11223100      -0.08108200 
Al      2.84955000       1.64038000      12.65165000       13       0.00516700      -0.01015500      -0.16773600 
Al      4.29471000       0.83317000      10.31286000       13      -0.11350700      -0.01160300       0.12157800 
Al      1.43445000       2.46002000      14.96443000       13       0.00981800       0.05034900       0.14643300 
Al      1.43535000       2.46616000       7.98312000       13       0.03127600       0.00319400      -0.08838300 
Al      1.43872000       4.11060000      12.64056000       13      -0.02339100       0.03469400      -0.12103600 
Al      2.84150000       3.32016000      10.32980000       13       0.01994200      -0.09750000       0.05336900 
16
Lattice="5.707159996 0.0 0.0 -2.853579998 4.94254554 0.0 0.0 0.0 22.959199905" Properties=species:S:1:pos:R:3:Z:I:1:force:R:3 energy=-56.85058559 pbc="T T T"
Al      0.00012000       0.01313000      14.96404000       13      -0.04868600      -0.05792900       0.13024000 
Al     -2.83500000       4.93155000       7.98385000       13      -0.08560500       0.02235200      -0.11445400 
Al     -0.02021000       1.67108000      12.65515000       13       0.05870600      -0.08027800      -0.18311100 
Al      1.42316000       0.83685000      10.32298000       13       0.08307400      -0.00793700       0.12861900 
Al     -1.42103000       2.46155000      14.96893000       13      -0.04466800       0.00350200       0.14909900 
Al     -1.41202000       2.48795000       7.97519000       13      -0.05564800      -0.12944200      -0.08120800 
Al     -1.42075000       4.12703000      12.64560000       13      -0.01660400       0.03671300      -0.15194600 
Al     -0.02205000       3.28242000      10.32300000       13       0.06641100       0.09714700       0.09614100 
Al     -0.01700000       4.93823000      14.97138000       13       0.07421100      -0.00176200       0.12734400 
Al     -0.01401000       4.90206000       7.98607000       13       0.12769500       0.14197000      -0.07151000 
Al      2.84874000       1.63896000      12.65294000       13       0.00682600      -0.01287300      -0.17235300 
Al      4.29756000       0.83505000      10.31245000       13      -0.13728100      -0.01498200       0.11957000 
Al      1.43599000       2.45778000      14.96237000       13       0.00790700       0.06050700       0.15470100 
Al      1.43707000       2.46514000       7.98276000       13       0.03175100       0.00519500      -0.08241700 
Al      1.44110000       4.10897000      12.63964000       13      -0.04408800       0.05048300      -0.11472300 
Al      2.83909000       3.32517000      10.33276000       13       0.02758500      -0.11421900       0.04007600 
16
Lattice="5.707159996 0.0 0.0 -2.853579998 4.94254554 0.0 0.0 0.0 22.959199905" Properties=species:S:1:pos:R:3:Z:I:1:force:R:3 energy=-56.84423642 pbc="T T T"
Al      0.00013000       0.01531000      14.96227000       13      -0.05691200      -0.06473200       0.12952600 
Al     -2.83193000       4.92972000       7.98366000       13      -0.11408000       0.03595100      -0.11039400 
Al     -0.02358000       1.67499000      12.65678000       13       0.06611500      -0.09617400      -0.19523800 
Al      1.42257000       0.83903000      10.32433000       13       0.09993900      -0.01940900       0.12160700 
Al     -1.42007000       2.45992000      14.96798000       13      -0.05266400       0.00418700       0.15424000 
Al     -1.40957000       2.49070000       7.97357000       13      -0.07337400      -0.16019600      -0.07234500 
Al     -1.41975000       4.12841000      12.64566000       13      -0.02005400       0.04215800      -0.15480400 
Al     -0.02570000       3.28033000      10.32435000       13       0.08253600       0.11751300       0.08636600 
Al     -0.01982000       4.93751000      14.97083000       13       0.08779800      -0.00422700       0.12943600 
Al     -0.01632000       4.89534000       7.98626000       13       0.14736600       0.16904900      -0.06905200 
Al      2.84792000       1.63753000      12.65421000       13       0.00821000      -0.01292100      -0.18476500 
Al      4.30040000       0.83692000      10.31205000       13      -0.16281900      -0.02455800       0.11560500 
Al      1.43752000       2.45555000      14.96033000       13       0.00705800       0.07371500       0.16001100 
Al      1.43879000       2.46412000       7.98240000       13       0.03932400       0.00317700      -0.07651000 
Al      1.44347000       4.10735000      12.63870000       13      -0.05741000       0.06830700      -0.10009100 
Al      2.83669000       3.33016000      10.33572000       13       0.02859400      -0.13026900       0.02592800 
16
Lattice="5.707159996 0.0 0.0 -2.853579998 4.94254554 0.0 0.0 0.0 22.959199905" Properties=species:S:1:pos:R:3:Z:I:1:force:R:3 energy=-56.83673102 pbc="T T T"
Al      0.00013000       0.01748000      14.96051000       13      -0.06533300      -0.07555100       0.13373700 
Al     -2.82886000       4.92789000       7.98347000       13      -0.12942400       0.04176000      -0.11103800 
Al     -0.02693000       1.67890000      12.65840000       13       0.07510300      -0.10864600      -0.20079100 
Al      1.42200000       0.84120000      10.32570000       13       0.11590300      -0.01840900       0.11899000 
Al     -1.41913000       2.45830000      14.96704000       13      -0.06122300       0.00656200       0.16295300 
Al     -1.40713000       2.49343000       7.97194000       13      -0.08593000      -0.19192600      -0.06444200 
Al     -1.41876000       4.12980000      12.64570000       13      -0.02375200       0.04732300      -0.15375400 
Al     -0.02935000       3.27826000      10.32570000       13       0.09134900       0.13351600       0.08443500 
Al     -0.02263000       4.93678000      14.97030000       13       0.10267900      -0.00674300       0.13269600 
Al     -0.01861000       4.88864000       7.98645000       13       0.16843800       0.19575100      -0.06332600 
Al      2.84711000       1.63611000      12.65547000       13       0.01446600      -0.00577400      -0.19520100 
Al      4.30323000       0.83880000      10.31165000       13      -0.19299000      -0.02704800       0.11481200 
Al      1.43905000       2.45332000      14.95830000       13       0.00686500       0.08916900       0.16738400 
Al      1.44051000       2.46310000       7.98204000       13       0.04696600       0.00063800      -0.07045600 
Al      1.44583000       4.10573000      12.63776000       13      -0.06992000       0.07960700      -0.08819400 
Al      2.83428000       3.33515000      10.33868000       13       0.03830700      -0.15947400       0.00246100 
16
Lattice="5.707159996 0.0 0.0 -2.853579998 4.94254554 0.0 0.0 0.0 22.959199905" Properties=species:S:1:pos:R:3:Z:I:1:force:R:3 energy=-56.82886126 pbc="T T T"
Al      0.00013000       0.01964000      14.95876000       13      -0.07376200      -0.08270300       0.13523400 
Al     -2.82581000       4.92607000       7.98326000       13      -0.14517300       0.04958900      -0.10804600 
Al     -0.03028000       1.68279000      12.66000000       13       0.08579700      -0.12971100      -0.20547700 
Al      1.42144000       0.84338000      10.32707000       13       0.12887800      -0.02402200       0.11634800 
Al     -1.41819000       2.45668000      14.96612000       13      -0.07062900       0.01024400       0.16956900 
Al     -1.40469000       2.49615000       7.97031000       13      -0.09711800      -0.22632300      -0.06540800 
Al     -1.41776000       4.13119000      12.64572000       13      -0.03185900       0.04625900      -0.15495700 
Al     -0.03300000       3.27620000      10.32707000       13       0.09828700       0.14843400       0.06922500 
Al     -0.02544000       4.93606000      14.96977000       13       0.12779100      -0.00495700       0.13418500 
Al     -0.02090000       4.88196000       7.98663000       13       0.18451200       0.23354400      -0.04964100 
Al      2.84630000       1.63468000      12.65671000       13       0.02009100       0.00056000      -0.20960600 
Al      4.30603000       0.84067000      10.31127000       13      -0.21666100      -0.02972500       0.11000100 
Al      1.44059000       2.45110000      14.95628000       13       0.00643700       0.09915500       0.17362100 
Al      1.44224000       2.46208000       7.98167000       13       0.05486400      -0.00211700      -0.06373000 
Al      1.44819000       4.10412000      12.63681000       13      -0.07925000       0.09160700      -0.08131200 
Al      2.83188000       3.34012000      10.34165000       13       0.04299900      -0.17726100      -0.01393100 
16
Lattice="5.707159996 0.0 0.0 -2.853579998 4.94254554 0.0 0.0 0.0 22.959199905" Properties=species:S:1:pos:R:3:Z:I:1:force:R:3 energy=-56.8202413 pbc="T T T"
Al      0.00012000       0.02180000      14.95702000       13      -0.08216100      -0.09937300       0.13903500 
Al     -2.82277000       4.92425000       7.98305000       13      -0.16739900       0.05919200      -0.10830100 
Al     -0.03363000       1.68668000      12.66159000       13       0.09951000      -0.14570100      -0.21349200 
Al      1.42089000       0.84555000      10.32846000       13       0.14316700      -0.02258100       0.11478400 
Al     -1.41725000       2.45506000      14.96521000       13      -0.08043300       0.01481800       0.17558800 
Al     -1.40227000       2.49885000       7.96867000       13      -0.11355300      -0.26257900      -0.05339800 
Al     -1.41677000       4.13259000      12.64573000       13      -0.04008700       0.04565000      -0.15618100 
Al     -0.03663000       3.27415000      10.32844000       13       0.10446900       0.16282500       0.06559200 
Al     -0.02823000       4.93534000      14.96926000       13       0.14422900      -0.00717200       0.13499600 
Al     -0.02316000       4.87529000       7.98681000       13       0.20808900       0.26090600      -0.04345100 
Al      2.84549000       1.63325000      12.65792000       13       0.02472600       0.00450700      -0.21731900 
Al      4.30882000       0.84254000      10.31090000       13      -0.24335300      -0.03361400       0.10492400 
Al      1.44213000       2.44889000      14.95428000       13       0.00287000       0.12020700       0.18964800 
Al      1.44397000       2.46106000       7.98129000       13       0.06295700      -0.00523500      -0.05673400 
Al      1.45055000       4.10252000      12.63585000       13      -0.08753700       0.10277400      -0.06800700 
Al      2.82948000       3.34507000      10.34461000       13       0.04930300      -0.19682800      -0.03258200 
16
Lattice="5.707159996 0.0 0.0 -2.853579998 4.94254554 0.0 0.0 0.0 22.959199905" Properties=species:S:1:pos:R:3:Z:I:1:force:R:3 energy=-56.81121668 pbc="T T T"
Al      0.00010000       0.02395000      14.95530000       13      -0.09073600      -0.11629200       0.14173400 
Al     -2.81974000       4.92244000       7.98282000       13      -0.18555100       0.06517200      -0.10268100 
Al     -0.03696000       1.69055000      12.66315000       13       0.10872900      -0.16218000      -0.22214100 
Al      1.42035000       0.84772000      10.32986000       13       0.15659500      -0.02404900       0.11122100 
Al     -1.41633000       2.45345000      14.96432000       13      -0.08962400       0.01817300       0.17855200 
Al     -1.39985000       2.50153000       7.96703000       13      -0.12940700      -0.28951300      -0.04212200 
Al     -1.41579000       4.13399000      12.64573000       13      -0.05064100       0.04305900      -0.15774200 
Al     -0.04025000       3.27212000      10.32982000       13       0.11487800       0.17982900       0.05475800 
Al     -0.03101000       4.93462000      14.96876000       13       0.16751300      -0.01427400       0.13622000 
Al     -0.02541000       4.86865000       7.98698000       13       0.23672500       0.28676400      -0.03798500 
Al      2.84469000       1.63182000      12.65912000       13       0.02890500       0.00426900      -0.22979300 
Al      4.31159000       0.84441000      10.31053000       13      -0.26612500      -0.04683900       0.10338700 
Al      1.44366000       2.44669000      14.95230000       13       0.00119700       0.13560600       0.19744700 
Al      1.44571000       2.46004000       7.98091000       13       0.06941200      -0.00755800      -0.04600700 
Al      1.45289000       4.10093000      12.63489000       13      -0.09838700       0.11568300      -0.05628000 
Al      2.82709000       3.35001000      10.34758000       13       0.05599100      -0.22049100      -0.05206300 
16
Lattice="5.707159996 0.0 0.0 -2.853579998 4.94254554 0.0 0.0 0.0 22.959199905" Properties=species:S:1:pos:R:3:Z:I:1:force:R:3 energy=-56.80228603 pbc="T T T"
Al      0.00007000       0.02609000      14.95359000       13      -0.10026100      -0.13150300       0.14134500 
Al     -2.81673000       4.92063000       7.98259000       13      -0.20628200       0.07886600      -0.09741500 
Al     -0.04029000       1.69441000      12.66469000       13       0.11605500      -0.17687500      -0.23198100 
Al      1.41982000       0.84989000      10.33127000       13       0.17107800      -0.02539800       0.10864200 
Al     -1.41541000       2.45183000      14.96345000       13      -0.10271500       0.02802800       0.18912100 
Al     -1.39745000       2.50418000       7.96538000       13      -0.14335000      -0.31945900      -0.03069000 
Al     -1.41480000       4.13540000      12.64572000       13      -0.05680400       0.04244400      -0.16279200 
Al     -0.04387000       3.27010000      10.33120000       13       0.13095400       0.20008300       0.05100000 
Al     -0.03377000       4.93390000      14.96827000       13       0.18120800      -0.01989100       0.13478700 
Al     -0.02763000       4.86204000       7.98715000       13       0.26284000       0.31469800      -0.03065500 
Al      2.84388000       1.63040000      12.66030000       13       0.03550200       0.00495600      -0.23906500 
Al      4.31433000       0.84627000      10.31018000       13      -0.28888400      -0.05340600       0.10327200 
Al      1.44520000       2.44450000      14.95034000       13      -0.00225300       0.15760200       0.20331900 
Al      1.44745000       2.45902000       7.98052000       13       0.06147400      -0.00176000      -0.04021700 
Al      1.45523000       4.09935000      12.63392000       13      -0.10852300       0.12481900      -0.04722400 
Al      2.82470000       3.35492000      10.35053000       13       0.05932600      -0.23825500      -0.06948500 
16
Lattice="5.707159996 0.0 0.0 -2.853579998 4.94254554 0.0 0.0 0.0 22.959199905" Properties=species:S:1:pos:R:3:Z:I:1:force:R:3 energy=-56.7901572 pbc="T T T"
Al      0.00004000       0.02821000      14.95189000       13      -0.10781500      -0.14428500       0.14951200 
Al     -2.81374000       4.91883000       7.98235000       13      -0.23203700       0.08794100      -0.09564500 
Al     -0.04360000       1.69825000      12.66622000       13       0.12259000      -0.19107300      -0.23761700 
Al      1.41931000       0.85206000      10.33268000       13       0.18499500      -0.02529700       0.10645000 
Al     -1.41450000       2.45022000      14.96259000       13      -0.11077200       0.03001300       0.19377300 
Al     -1.39506000       2.50680000       7.96373000       13      -0.15628200      -0.35277600      -0.02846200 
Al     -1.41383000       4.13680000      12.64569000       13      -0.06984000       0.03993700      -0.16032600 
Al     -0.04747000       3.26810000      10.33259000       13       0.14324900       0.21825500       0.03913600 
Al     -0.03652000       4.93317000      14.96780000       13       0.19985300      -0.02229700       0.13947000 
Al     -0.02983000       4.85545000       7.98732000       13       0.28451100       0.35147100      -0.02144700 
Al      2.84308000       1.62897000      12.66146000       13       0.04047700       0.00712200      -0.24624300 
Al      4.31705000       0.84813000      10.30983000       13      -0.31576300      -0.05501900       0.09687900 
Al      1.44673000       2.44233000      14.94839000       13      -0.00448400       0.17063900       0.21254000 
Al      1.44920000       2.45800000       7.98013000       13       0.07007100      -0.00578200      -0.03382100 
Al      1.45755000       4.09778000      12.63295000       13      -0.11844900       0.13707700      -0.03833100 
Al      2.82232000       3.35982000      10.35349000       13       0.06578400      -0.26305900      -0.08251900 
16
Lattice="5.707159996 0.0 0.0 -2.853579998 4.94254554 0.0 0.0 0.0 22.959199905" Properties=species:S:1:pos:R:3:Z:I:1:force:R:3 energy=-56.77664293 pbc="T T T"
Al     -0.00001000       0.03033000      14.95021000       13      -0.11588800      -0.15754700       0.15485600 
Al     -2.81077000       4.91704000       7.98210000       13      -0.25221200       0.09598100      -0.09478000 
Al     -0.04690000       1.70207000      12.66772000       13       0.13550000      -0.20611400      -0.24686300 
Al      1.41882000       0.85422000      10.33411000       13       0.20226600      -0.02543600       0.10074800 
Al     -1.41360000       2.44861000      14.96175000       13      -0.12090800       0.03576500       0.19911800 
Al     -1.39268000       2.50939000       7.96208000       13      -0.16750000      -0.38556700      -0.02194600 
Al     -1.41286000       4.13822000      12.64564000       13      -0.07862600       0.03851100      -0.16061600 
Al     -0.05106000       3.26612000      10.33398000       13       0.16077100       0.23953600       0.02349500 
Al     -0.03925000       4.93244000      14.96733000       13       0.22631000      -0.02474400       0.14285400 
Al     -0.03201000       4.84890000       7.98749000       13       0.32137700       0.38261700      -0.01644300 
Al      2.84229000       1.62754000      12.66260000       13       0.04894500       0.00604800      -0.25651500 
Al      4.31974000       0.84998000      10.30950000       13      -0.33948800      -0.06265300       0.09411800 
Al      1.44827000       2.44017000      14.94647000       13      -0.00381800       0.18143500       0.21781400 
Al      1.45096000       2.45698000       7.97974000       13       0.07550500      -0.00812200      -0.02605000 
Al      1.45987000       4.09622000      12.63197000       13      -0.12566800       0.14706500      -0.02946300 
Al      2.81994000       3.36469000      10.35643000       13       0.07174600      -0.28469000      -0.10533600 
16
Lattice="5.707159996 0.0 0.0 -2.853579998 4.94254554 0.0 0.0 0.0 22.959199905" Properties=species:S:1:pos:R:3:Z:I:1:force:R:3 energy=-56.76184474 pbc="T T T"