108
Lattice="8.56074 0.0 0.0 -4.28036982 7.41381842 0.0 7e-07 1.21e-06 37.9592" Properties=species:S:1:pos:R:3:Z:I:1:force:R:3 energy=-398.28875232 pbc="T T T"
Al      0.00000000       1.64752000      27.13437000       13       0.00021200       0.00082500       0.03305300 
Al      1.42679000       0.82376000      10.82483000       13       0.00125900      -0.00084400      -0.03255600 
Al      0.00000000       1.64752000      13.15477000       13      -0.00017100      -0.00048300       0.00210700 
Al      1.42679000       0.82376000      24.80443000       13      -0.00124100      -0.00084200      -0.00339700 
Al      0.00000000       0.00000000      22.47450000       13       0.00128800      -0.00430900      -0.04415800 
Al      0.00000000       0.00000000      15.48470000       13       0.00331400      -0.00234000       0.04498900 
Al      0.00000000       0.00000000       8.49490000       13       0.00322100       0.00017700       0.07582900 
Al      0.00000000       0.00000000      29.46430000       13      -0.00063300      -0.00466200      -0.07535200 
Al      0.00000000       1.64752000      20.14457000       13       0.00044000      -0.00008300       0.04274300 
Al      1.42679000       0.82376000      17.81463000       13      -0.00072700      -0.00068200      -0.04351200 
Al      0.00000000       1.64752000       6.16497000       13      -0.00149700      -0.00067200      -0.04269800 
Al      1.42679000       0.82376000      31.79423000       13      -0.00054200      -0.00026900       0.04523200 
Al     -1.42679000       4.11879000      27.13437000       13      -0.00010900       0.00027100       0.03129000 
Al      0.00000000       3.29503000      10.82483000       13       0.00027100       0.00112500      -0.03138100 
Al     -1.42679000       4.11879000      13.15477000       13       0.00188900      -0.00192300       0.00627700 
Al      0.00000000       3.29503000      24.80443000       13       0.00121800      -0.00039700      -0.00361100 
Al     -1.42679000       2.47127000      22.47450000       13      -0.00280900       0.00431500      -0.04440000 
Al     -1.42679000       2.47127000      15.48470000       13      -0.00192100       0.00302700       0.04440500 
Al     -1.42679000       2.47127000       8.49490000       13       0.00079700      -0.00000200       0.07540600 
Al     -1.42679000       2.47127000      29.46430000       13      -0.00285100       0.00237300      -0.07536000 
Al     -1.42679000       4.11879000      20.14457000       13       0.00120500      -0.00094100       0.04478800 
Al      0.00000000       3.29503000      17.81463000       13       0.00053400      -0.00007700      -0.04337400 
Al     -1.42679000       4.11879000       6.16497000       13       0.00170600      -0.00104100      -0.04506900 
Al      0.00000000       3.29503000      31.79423000       13       0.00157200      -0.00073000       0.04638900 
Al     -2.85358000       6.59006000      27.13437000       13       0.00048100      -0.00087600       0.03089100 
Al     -1.42679000       5.76630000      10.82483000       13      -0.00063100       0.00010700      -0.03061200 
Al     -2.85358000       6.59006000      13.15477000       13      -0.00207300       0.00181200       0.00470700 
Al     -1.42679000       5.76630000      24.80443000       13       0.00012700       0.00133200      -0.00680100 
Al     -2.85358000       4.94255000      22.47450000       13       0.00055000      -0.00039000      -0.04309000 
Al     -2.85358000       4.94255000      15.48470000       13      -0.00144200      -0.00086400       0.04253500 
Al     -2.85358000       4.94255000       8.49490000       13      -0.00498200      -0.00084200       0.07270600 
Al     -2.85358000       4.94255000      29.46430000       13       0.00356000       0.00245100      -0.07310400 
Al     -2.85358000       6.59006000      20.14457000       13      -0.00087500       0.00103400       0.04391000 
Al     -1.42679000       5.76630000      17.81463000       13      -0.00006000       0.00075400      -0.04477800 
Al     -2.85358000       6.59006000       6.16497000       13      -0.00103700       0.00096300      -0.04672500 
Al     -1.42679000       5.76630000      31.79423000       13      -0.00016400       0.00162700       0.04368200 
Al      2.85358000       1.64752000      27.13437000       13       0.00121000      -0.00025200       0.03087300 
Al      4.28037000       0.82376000      10.82483000       13      -0.00035400       0.00097800      -0.03065900 
Al      2.85358000       1.64752000      13.15477000       13      -0.00042700      -0.00105200       0.00508000 
Al      4.28037000       0.82376000      24.80443000       13       0.00146500      -0.00080500      -0.00441500 
Al      2.85358000       0.00000000      22.47450000       13       0.00202900      -0.00290100      -0.04396400 
Al      2.85358000       0.00000000      15.48470000       13      -0.00145500       0.00127500       0.04334300 
Al      2.85358000       0.00000000       8.49490000       13      -0.00401700       0.00663500       0.07398900 
Al      2.85358000       0.00000000      29.46430000       13       0.00369100      -0.00599800      -0.07447800 
Al      2.85358000       1.64752000      20.14457000       13      -0.00007900      -0.00021000       0.04432300 
Al      4.28037000       0.82376000      17.81463000       13       0.00083500      -0.00068300      -0.04393600 
Al      2.85358000       1.64752000       6.16497000       13       0.00078400      -0.00214400      -0.04568400 
Al      4.28037000       0.82376000      31.79423000       13      -0.00006200       0.00083100       0.04790900 
Al      1.42679000       4.11879000      27.13437000       13      -0.00008700       0.00054400       0.03042400 
Al      2.85358000       3.29503000      10.82483000       13       0.00066900       0.00053900      -0.03127100 
Al      1.42679000       4.11879000      13.15477000       13      -0.00100300       0.00019800       0.00445500 
Al      2.85358000       3.29503000      24.80443000       13      -0.00258400       0.00009500      -0.00633800 
Al      1.42679000       2.47127000      22.47450000       13       0.00073200       0.00215500      -0.04261500 
Al      1.42679000       2.47127000      15.48470000       13       0.00359200       0.00208600       0.04468400 
Al      1.42679000       2.47127000       8.49490000       13       0.00266900       0.00046200       0.07545500 
Al      1.42679000       2.47127000      29.46430000       13      -0.00210800       0.00249300      -0.07392700 
Al      1.42679000       4.11879000      20.14457000       13      -0.00021100      -0.00010800       0.04378300 
Al      2.85358000       3.29503000      17.81463000       13      -0.00137900       0.00007500      -0.04490600 
Al      1.42679000       4.11879000       6.16497000       13      -0.00146900       0.00211100      -0.04774200 
Al      2.85358000       3.29503000      31.79423000       13      -0.00179100      -0.00007400       0.04581100 
Al      0.00000000       6.59006000      27.13437000       13      -0.00079300      -0.00001700       0.03204200 
Al      1.42679000       5.76630000      10.82483000       13       0.00025000      -0.00132900      -0.03090300 
Al      0.00000000       6.59006000      13.15477000       13       0.00189500       0.00133900       0.00488900 
Al      1.42679000       5.76630000      24.80443000       13       0.00071800       0.00018900      -0.00409300 
Al      0.00000000       4.94255000      22.47450000       13      -0.00192500       0.00132000      -0.04453500 
Al      0.00000000       4.94255000      15.48470000       13       0.00028000      -0.00223500       0.04228200 
Al      0.00000000       4.94255000       8.49490000       13       0.00327100      -0.00609100       0.07309200 
Al      0.00000000       4.94255000      29.46430000       13      -0.00121800       0.00376100      -0.07456400 
Al      0.00000000       6.59006000      20.14457000       13       0.00115600       0.00083100       0.04422900 
Al      1.42679000       5.76630000      17.81463000       13       0.00016600       0.00031500      -0.04362100 
Al      0.00000000       6.59006000       6.16497000       13       0.00103000       0.00068400      -0.04517900 
Al      1.42679000       5.76630000      31.79423000       13       0.00154100      -0.00141600       0.04557200 
Al      5.70716000       1.64752000      27.13437000       13      -0.00150900       0.00083800       0.03118400 
Al      7.13395000       0.82376000      10.82483000       13      -0.00072100       0.00044500      -0.03328300 
Al      5.70716000       1.64752000      13.15477000       13       0.00075500      -0.00212100       0.00363900 
Al      7.13395000       0.82376000      24.80443000       13      -0.00036600      -0.00066400      -0.00169100 
Al      5.70716000       0.00000000      22.47450000       13      -0.00391100      -0.00111800      -0.04442200 
Al      5.70716000       0.00000000      15.48470000       13      -0.00126800       0.00146800       0.04290900 
Al      5.70716000       0.00000000       8.49490000       13       0.00105500       0.00344100       0.07434900 
Al      5.70716000       0.00000000      29.46430000       13      -0.00332500      -0.00206800      -0.07547900 
Al      5.70716000       1.64752000      20.14457000       13       0.00025900      -0.00108900       0.04359400 
Al      7.13395000       0.82376000      17.81463000       13      -0.00067400      -0.00066800      -0.04264400 
Al      5.70716000       1.64752000       6.16497000       13       0.00051200      -0.00177600      -0.04759000 
Al      7.13395000       0.82376000      31.79423000       13       0.00075600       0.00028800       0.04337700 
Al      4.28037000       4.11879000      27.13437000       13      -0.00000800       0.00016500       0.03012300 
Al      5.70716000       3.29503000      10.82483000       13      -0.00075600      -0.00001000      -0.03070900 
Al      4.28037000       4.11879000      13.15477000       13      -0.00081100       0.00146300       0.00787700 
Al      5.70716000       3.29503000      24.80443000       13       0.00127500      -0.00234700      -0.00653100 
Al      4.28037000       2.47127000      22.47450000       13       0.00142500       0.00038200      -0.04228300 
Al      4.28037000       2.47127000      15.48470000       13      -0.00110900       0.00235100       0.04370600 
Al      4.28037000       2.47127000       8.49490000       13      -0.00317400       0.00151100       0.07395900 
Al      4.28037000       2.47127000      29.46430000       13       0.00459900      -0.00366000      -0.07296400 
Al      4.28037000       4.11879000      20.14457000       13      -0.00047700       0.00068000       0.04537000 
Al      5.70716000       3.29503000      17.81463000       13       0.00030900      -0.00124200      -0.04492400 
Al      4.28037000       4.11879000       6.16497000       13      -0.00045500       0.00160600      -0.04478800 
Al      5.70716000       3.29503000      31.79423000       13       0.00043600      -0.00238600       0.04581500 
Al      2.85358000       6.59006000      27.13437000       13       0.00014100      -0.00162300       0.03218800 
Al      4.28037000       5.76630000      10.82483000       13       0.00047400      -0.00088500      -0.03070000 
Al      2.85358000       6.59006000      13.15477000       13       0.00031800       0.00089000       0.00282000 
Al      4.28037000       5.76630000      24.80443000       13      -0.00098400       0.00331300      -0.00497500 
Al      2.85358000       4.94255000      22.47450000       13       0.00081500       0.00003000      -0.04288800 
Al      2.85358000       4.94255000      15.48470000       13       0.00181400      -0.00425200       0.04350500 
Al      2.85358000       4.94255000       8.49490000       13       0.00206600      -0.00502300       0.07380700 
Al      2.85358000       4.94255000      29.46430000       13      -0.00262100       0.00504200      -0.07336500 
Al      2.85358000       6.59006000      20.14457000       13       0.00028800       0.00039200       0.04301000 
Al      4.28037000       5.76630000      17.81463000       13      -0.00071100       0.00170100      -0.04405500 
Al      2.85358000       6.59006000       6.16497000       13      -0.00016500       0.00010200      -0.04514200 
Al      4.28037000       5.76630000      31.79423000       13      -0.00115300       0.00229500       0.04683200 
108
Lattice="8.56074 0.0 0.0 -4.28036982 7.41381842 0.0 7e-07 1.21e-06 37.9592" Properties=species:S:1:pos:R:3:Z:I:1:force:R:3 energy=-398.28440392 pbc="T T T"
Al      0.00072000       1.65028000      27.13178000       13       0.00372000      -0.00098200       0.04630300 
Al      1.43149000       0.82131000      10.82448000       13      -0.02305100       0.00595300      -0.00816100 
Al     -0.00368000       1.65253000      13.15681000       13       0.02443100      -0.03318400      -0.02035000 
Al      1.42669000       0.82650000      24.80587000       13       0.00490000       0.00450700      -0.02213800 
Al     -4.27844000       7.41165000      22.47296000       13      -0.01392900       0.00815700      -0.02632000 
Al      0.00387000       0.00353000      15.48249000       13      -0.00936400      -0.01037900       0.03388600 
Al      0.00198000       0.00170000       8.49489000       13      -0.00983500       0.00018900       0.07384300 
Al      4.27631000       7.41102000      29.46574000       13       0.01367400      -0.00182300      -0.07516500 
Al     -0.00298000       1.64651000      20.14356000       13       0.03206300       0.01446100       0.02319800 
Al      1.42445000       0.81495000      17.81475000       13       0.01179300       0.04428400      -0.04650500 
Al     -0.00036000       1.64560000       6.16653000       13      -0.00291000       0.00697200      -0.04888400 
Al      1.43120000       0.82611000      31.79341000       13      -0.02247800      -0.01292400       0.05161100 
Al     -1.42412000       4.11580000      27.13141000       13      -0.02674200       0.02221000       0.04922100 
Al      0.00290000       3.29364000      10.82424000       13      -0.01676000      -0.00023800      -0.02852600 
Al     -1.42302000       4.11660000      13.15346000       13      -0.02028800       0.01978400       0.01604400 
Al     -0.00243000       3.30146000      24.80799000       13       0.01887400      -0.02898200      -0.03555300 
Al      7.13480000       2.46890000      22.46602000       13       0.00007600       0.00830800       0.02314500 
Al      7.13400000       2.46567000      15.48835000       13      -0.01025300       0.03968200       0.01699700 
Al      7.12924000       2.46856000       8.49548000       13       0.00726700       0.00429900       0.07173700 
Al     -1.42195000       2.46571000      29.46754000       13      -0.01667800       0.02023800      -0.08460600 
Al     -1.43097000       4.11695000      20.14512000       13       0.01707900       0.02845800       0.03547200 
Al     -0.00189000       3.29805000      17.81408000       13       0.01897600      -0.01207700      -0.03180300 
Al     -1.42627000       4.11500000       6.16421000       13       0.00495600       0.01245500      -0.04478800 
Al     -0.00239000       3.29870000      31.79069000       13       0.02007800      -0.02883600       0.06522600 
Al     -2.85990000       6.59435000      27.13147000       13       0.02785400      -0.02501000       0.03484900 
Al     -1.42487000       5.76911000      10.81970000       13      -0.01183900      -0.02432900      -0.00310600 
Al     -2.85137000       6.59130000      13.15593000       13      -0.01665000      -0.00253400      -0.01668500 
Al     -1.42515000       5.76761000      24.80343000       13      -0.01740400       0.00610100       0.00697900 
Al     -2.85206000       4.94316000      22.47581000       13      -0.00144100      -0.00783600      -0.04824700 
Al      5.70607000       4.94369000      15.48582000       13       0.00219200      -0.02255100       0.02374700 
Al     -2.85253000       4.94161000       8.49620000       13      -0.01520200      -0.00936200       0.07107300 
Al     -2.85137000       4.94420000      29.46302000       13      -0.00993200      -0.01181800      -0.07457700 
Al     -2.85251000       6.59641000      20.14556000       13      -0.00896600      -0.03120300       0.03994200 
Al     -1.42861000       5.76684000      17.81158000       13       0.00881900      -0.00394400      -0.03298100 
Al     -2.85491000       6.59531000       6.17040000       13       0.01319700      -0.02342600      -0.06496300 
Al     -1.42512000       5.76123000      31.79559000       13      -0.00025500       0.03777600       0.05807600 
Al      2.85491000       1.64641000      27.13671000       13       0.00104700       0.00393600       0.00855800 
Al      4.28260000       0.82596000      10.82680000       13       0.00185200      -0.00809200      -0.03651500 
Al      2.86004000       1.64661000      13.15451000       13      -0.02851100       0.01201500       0.00825400 
Al      4.27845000       0.81902000      24.80230000       13       0.00832900       0.02070700       0.01378300 
Al      2.85289000       0.00270000      22.47125000       13       0.00922200      -0.01966200      -0.01690600 
Al     -1.42512000       7.41050000      15.48039000       13       0.00304300       0.01484800       0.05858900 
Al     -1.43197000       7.41249000       8.49981000       13       0.01308300       0.01212700       0.06573400 
Al     -1.42516000       7.41270000      29.46266000       13      -0.00588400      -0.00624400      -0.07101000 
Al      2.86011000       1.64791000      20.14478000       13      -0.03449500       0.01101900       0.03134900 
Al      4.28043000       0.82547000      17.82097000       13      -0.00773400      -0.01285200      -0.06868800 
Al      2.85562000       1.64853000       6.16790000       13      -0.00973400       0.00390300      -0.04596800 
Al      4.27732000       0.83086000      31.79451000       13       0.01246600      -0.02625200       0.05442900 
Al      1.42556000       4.12085000      27.13777000       13       0.01531100      -0.01506500       0.01939100 
Al      2.85221000       3.28995000      10.82104000       13       0.00005100       0.02333200      -0.00623100 
Al      1.42709000       4.11598000      13.15325000       13       0.01313900       0.01183500       0.01466800 
Al      2.85432000       3.29913000      24.80192000       13       0.00003200      -0.02383400       0.01963600 
Al      1.42707000       2.46894000      22.47021000       13      -0.01097400       0.01296800      -0.01218700 
Al      1.42406000       2.47234000      15.48397000       13       0.01741100      -0.00282200       0.04234300 
Al      1.42563000       2.47337000       8.49602000       13      -0.00701900      -0.00496300       0.06207300 
Al      1.42818000       2.46925000      29.46303000       13      -0.00000100       0.00658400      -0.06975000 
Al      1.43127000       4.12413000      20.14301000       13      -0.03110800      -0.02327700       0.03765500 
Al      2.85392000       3.29194000      17.81433000       13      -0.01054500       0.01248700      -0.04566400 
Al      1.42834000       4.11904000       6.16161000       13      -0.00093900      -0.00396000      -0.04339200 
Al      2.85437000       3.29448000      31.79573000       13      -0.00373100       0.01209300       0.03969600 
Al      0.00302000       6.58635000      27.13665000       13      -0.01568400       0.01278800       0.02289000 
Al      1.42269000       5.76664000      10.82605000       13       0.01938400      -0.00492500      -0.03099400 
Al     -0.00155000       6.58860000      13.15146000       13       0.01220200       0.00053900       0.00610400 
Al      1.42841000       5.76269000      24.80616000       13       0.00492100       0.02300700      -0.01966600 
Al      0.00174000       4.93987000      22.47616000       13      -0.00306500       0.01172000      -0.05140400 
Al     -0.00122000       4.94560000      15.48598000       13      -0.00196000      -0.02103800       0.02618400 
Al     -0.00332000       4.94196000       8.49527000       13       0.00100800      -0.00797400       0.06708200 
Al     -0.00283000       4.94326000      29.46736000       13       0.01049100      -0.00600800      -0.08856800 
Al     -0.00504000       6.59361000      20.14260000       13       0.01532700      -0.02383800       0.05472900 
Al      1.42566000       5.76904000      17.81633000       13       0.00189400      -0.00283000      -0.04687500 
Al     -0.00143000       6.59127000       6.16913000       13      -0.00064900      -0.01054300      -0.06201800 
Al      1.42950000       5.76346000      31.79375000       13      -0.00627300       0.01664900       0.05642700 
Al      5.70834000       1.64715000      27.13556000       13      -0.00578700      -0.00803400       0.02656200 
Al      7.13489000       0.82546000      10.81853000       13       0.00779500      -0.00304300       0.00119600 
Al      5.70744000       1.65022000      13.15381000       13       0.00424700      -0.01603200       0.01476400 
Al      7.13753000       0.82513000      24.81021000       13      -0.01270800      -0.00268400      -0.03499000 
Al      5.70729000       0.00074000      22.47493000       13       0.00288400      -0.01746900      -0.03478800 
Al      1.42748000       7.41031000      15.47922000       13      -0.00415100       0.00971100       0.05342200 
Al      1.42464000       7.41154000       8.49615000       13      -0.00537200       0.00798900       0.06751900 
Al      1.42613000       7.41339000      29.46806000       13       0.00041900      -0.00592400      -0.08537600 
Al      5.71082000       1.64959000      20.14479000       13      -0.01611500      -0.01172700       0.04218400 
Al      7.13174000       0.82369000      17.81536000       13       0.00384400      -0.00343100      -0.04760500 
Al      5.70468000       1.64828000       6.16384000       13       0.00454900      -0.01375400      -0.03843000 
Al      7.13063000       0.82523000      31.79755000       13       0.00916400       0.00323600       0.05494100 
Al      4.28012000       4.11762000      27.13665000       13       0.01066900       0.00166800       0.00191400 
Al      5.70272000       3.29504000      10.82794000       13       0.02199900       0.01325800      -0.03554300 
Al      4.28037000       4.12048000      13.15579000       13      -0.00482600      -0.00407900      -0.00131700 
Al      5.71064000       3.29347000      24.80156000       13      -0.02884100       0.00011900       0.00266500 
Al      4.27842000       2.47023000      22.47319000       13       0.01797800       0.00759300      -0.02704600 
Al      4.27990000       2.46647000      15.48895000       13       0.00417500       0.02215100       0.01672700 
Al      4.27729000       2.46970000       8.49754000       13       0.00248100       0.00386600       0.06028800 
Al      4.28144000       2.46938000      29.46273000       13       0.00752900       0.01879100      -0.05968800 
Al      4.27692000       4.11705000      20.14260000       13       0.02383400       0.02043500       0.03739500 
Al      5.70928000       3.29343000      17.81479000       13      -0.01387800       0.01480600      -0.04368300 
Al      4.28466000       4.11996000       6.16279000       13      -0.00521500       0.00271800      -0.04047900 
Al      5.70462000       3.29944000      31.79704000       13       0.00170600      -0.00577000       0.03845300 
Al      2.85562000       6.58661000      27.13143000       13      -0.01258400       0.01426100       0.04343400 
Al      4.27826000       5.76691000      10.82222000       13       0.00100800      -0.00545300      -0.01473900 
Al      2.85225000       6.59078000      13.15513000       13       0.01275000      -0.00072400      -0.00803700 
Al      4.28114000       5.77004000      24.79962000       13       0.00420100      -0.02422600       0.01593700 
Al      2.85473000       4.93751000      22.47297000       13      -0.00772200       0.02382700      -0.02766900 
Al      2.85203000       4.94395000      15.48576000       13       0.01325100      -0.01418200       0.03744900 
Al      2.85098000       4.94443000       8.49392000       13       0.01440800      -0.00807900       0.07277900 
Al      2.85099000       4.94235000      29.46390000       13       0.00748000      -0.00831200      -0.06041500 
Al      2.85334000       6.59052000      20.14690000       13      -0.00112600       0.00077800       0.04358100 
Al      4.28004000       5.77069000      17.81435000       13      -0.00822300      -0.03015500      -0.03778700 
Al      2.85528000       6.58588000       6.16319000       13      -0.00959200       0.01024500      -0.04052200 
Al      4.28128000       5.76877000      31.80007000       13       0.00244400       0.00413300       0.03552000 
108
Lattice="8.56074 0.0 0.0 -4.28036982 7.41381842 0.0 7e-07 1.21e-06 37.9592" Properties=species:S:1:pos:R:3:Z:I:1:force:R:3 energy=-398.26877694 pbc="T T T"
Al      0.00144000       1.65304000      27.12919000       13       0.00489000      -0.01456300       0.06362200 
Al      1.43619000       0.81887000      10.82413000       13      -0.04673700       0.01283800       0.00571100 
Al     -0.00735000       1.65754000      13.15885000       13       0.04361000      -0.06136100      -0.04767600 
Al      1.42659000       0.82925000      24.80730000       13       0.01007500       0.01942300      -0.03446000 
Al     -4.27650000       7.40948000      22.47141000       13      -0.03168900       0.02376600      -0.00955600 
Al      0.00775000       0.00707000      15.48027000       13      -0.03066400      -0.03078900       0.02935800 
Al      0.00397000       0.00341000       8.49489000       13      -0.02647400      -0.00531900       0.07559400 
Al      4.27225000       7.40821000      29.46717000       13       0.03058200      -0.00118700      -0.07399800 
Al     -0.00596000       1.64551000      20.14255000       13       0.06329100       0.03056500       0.00853900 
Al      1.42211000       0.80614000      17.81487000       13       0.02662000       0.10192600      -0.04445300 
Al     -0.00073000       1.64369000       6.16809000       13      -0.00142500       0.01829100      -0.05686600 
Al      1.43561000       0.82847000      31.79259000       13      -0.03849300      -0.02131200       0.05062700 
Al     -1.42146000       4.11282000      27.12847000       13      -0.04732000       0.04267000       0.07010000 
Al      0.00580000       3.29224000      10.82365000       13      -0.03106600      -0.00191700      -0.03570400 
Al     -1.41926000       4.11441000      13.15216000       13      -0.03316200       0.03331400       0.02170600 
Al     -0.00485000       3.30788000      24.81153000       13       0.03570400      -0.06593800      -0.06459200 
Al      7.13565000       2.46652000      22.45754000       13       0.00194500       0.01539100       0.08988300 
Al      7.13406000       2.46007000      15.49200000       13      -0.02016000       0.06831800       0.00510000 
Al      7.12453000       2.46585000       8.49606000       13       0.01475300       0.01185100       0.06768700 
Al     -1.41711000       2.46015000      29.47077000       13      -0.04442800       0.04263000      -0.10094700 
Al     -1.43515000       4.11512000      20.14567000       13       0.03552300       0.05509600       0.02931800 
Al     -0.00378000       3.30106000      17.81353000       13       0.03476300      -0.02810300      -0.01918300 
Al     -1.42575000       4.11121000       6.16346000       13       0.00530700       0.02912900      -0.04507200 
Al     -0.00477000       3.30236000      31.78716000       13       0.02625600      -0.04776200       0.07893300 
Al     -2.86622000       6.59863000      27.12858000       13       0.06253300      -0.05276500       0.05021000 
Al     -1.42294000       5.77192000      10.81457000       13      -0.02976400      -0.04538900       0.02359800 
Al     -2.84917000       6.59254000      13.15709000       13      -0.03036900      -0.00471000      -0.03733300 
Al     -1.42351000       5.76892000      24.80242000       13      -0.02791300       0.01311600       0.01507800 
Al     -2.85055000       4.94377000      22.47712000       13       0.00031600      -0.01231000      -0.05687700 
Al      5.70499000       4.94484000      15.48695000       13       0.00213800      -0.04157400       0.01209900 
Al     -2.85148000       4.94068000       8.49751000       13      -0.03001300      -0.01964200       0.06679800 
Al     -2.84916000       4.94586000      29.46174000       13      -0.02055000      -0.02491300      -0.07520600 
Al     -2.85145000       6.60276000      20.14655000       13      -0.02384900      -0.06353500       0.03305700 
Al     -1.43042000       5.76737000      17.80853000       13       0.01474600      -0.00621300      -0.01674100 
Al     -2.85623000       6.60055000       6.17583000       13       0.02444000      -0.03792600      -0.07851300 
Al     -1.42345000       5.75616000      31.79695000       13      -0.00138600       0.07109100       0.06048600 
Al      2.85624000       1.64530000      27.13905000       13       0.00584400       0.00858600      -0.00932900 
Al      4.28483000       0.82816000      10.82877000       13       0.00234200      -0.01953100      -0.04599000 
Al      2.86649000       1.64570000      13.15426000       13      -0.05610800       0.02237600       0.00699400 
Al      4.27653000       0.81429000      24.80016000       13       0.02109100       0.03868400       0.03199300 
Al      2.85220000       0.00540000      22.46800000       13       0.01718800      -0.04828800       0.00726900 
Al     -1.42345000       7.40719000      15.47608000       13       0.00259000       0.03636700       0.07902400 