108
Lattice="8.56071 0.0 0.0 1.6e-07 8.56071 0.0 6.3e-07 6.3e-07 34.21336" Properties=species:S:1:pos:R:3:Z:I:1:force:R:3 energy=-395.90490971 pbc="T T T"
Al      0.71339000       0.71339000       6.00889000       13       0.00227300       0.00229700      -0.10942800 
Al      2.14018000       2.14018000      28.20447000       13      -0.00024400       0.00048000       0.11049800 
Al      0.71339000       0.71339000      14.08001000       13       0.00143400       0.00145400       0.01492400 
Al      2.14018000       2.14018000      20.13335000       13       0.00032300       0.00043700      -0.01463500 
Al      0.71339000       0.71339000      22.15113000       13       0.00078600       0.00128800      -0.02652000 
Al      2.14018000       2.14018000      12.06223000       13      -0.00014500       0.00018200       0.02653300 
Al      0.71339000       0.71339000      10.04445000       13       0.00083200       0.00124400      -0.01371700 
Al      2.14018000       2.14018000      24.16891000       13      -0.00041300       0.00061900       0.01359600 
Al      0.71339000       0.71339000      18.11557000       13       0.00103100       0.00176700      -0.00945500 
Al      2.14018000       2.14018000      16.09779000       13      -0.00025800       0.00037400       0.00933600 
Al      0.71339000       0.71339000      26.18669000       13       0.00140300       0.00126300      -0.12641900 
Al      2.14018000       2.14018000       8.02667000       13       0.00043700      -0.00008700       0.12636900 
Al      0.71339000       3.56696000       6.00889000       13       0.00027400      -0.00039300      -0.11114100 
Al      2.14018000       4.99375000      28.20447000       13      -0.00272000      -0.00209100       0.10888100 
Al      0.71339000       3.56696000      14.08001000       13       0.00024700      -0.00010000       0.01456200 
Al      2.14018000       4.99375000      20.13335000       13      -0.00173200      -0.00117500      -0.01483800 
Al      0.71339000       3.56696000      22.15113000       13      -0.00003100      -0.00000000      -0.02629700 
Al      2.14018000       4.99375000      12.06223000       13      -0.00143400      -0.00130000       0.02618800 
Al      0.71339000       3.56696000      10.04445000       13       0.00029600       0.00017300      -0.01306500 
Al      2.14018000       4.99375000      24.16891000       13      -0.00201300      -0.00135500       0.01398900 
Al      0.71339000       3.56696000      18.11557000       13       0.00016600      -0.00000900      -0.01022400 
Al      2.14018000       4.99375000      16.09779000       13      -0.00219200      -0.00176000       0.00890900 
Al      0.71339000       3.56696000      26.18669000       13      -0.00018100      -0.00018200      -0.12628200 
Al      2.14018000       4.99375000       8.02667000       13      -0.00088600      -0.00119600       0.12616100 
Al      0.71339000       6.42053000       6.00889000       13      -0.00099000      -0.00188800      -0.10910700 
Al      2.14018000       7.84732000      28.20447000       13       0.00060800       0.00165200       0.10868100 
Al      0.71339000       6.42053000      14.08001000       13      -0.00020300      -0.00131200       0.01525900 
Al      2.14018000       7.84732000      20.13335000       13       0.00019300       0.00082700      -0.01567300 
Al      0.71339000       6.42053000      22.15113000       13      -0.00044100      -0.00127000      -0.02663000 
Al      2.14018000       7.84732000      12.06223000       13       0.00001500       0.00115700       0.02730200 
Al      0.71339000       6.42053000      10.04445000       13      -0.00015300      -0.00142100      -0.01408400 
Al      2.14018000       7.84732000      24.16891000       13      -0.00021800       0.00073400       0.01421400 
Al      0.71339000       6.42053000      18.11557000       13      -0.00031400      -0.00169300      -0.00868800 
Al      2.14018000       7.84732000      16.09779000       13      -0.00054100       0.00150600       0.00827200 
Al      0.71339000       6.42053000      26.18669000       13      -0.00105900      -0.00108800      -0.12636200 
Al      2.14018000       7.84732000       8.02667000       13       0.00146800       0.00127100       0.12647700 
Al      3.56696000       0.71339000       6.00889000       13      -0.00169000       0.00067900      -0.10929200 
Al      4.99375000       2.14018000      28.20447000       13      -0.00217900      -0.00103900       0.10715300 
Al      3.56696000       0.71339000      14.08001000       13      -0.00072200       0.00044800       0.01448200 
Al      4.99375000       2.14018000      20.13335000       13      -0.00181500      -0.00059300      -0.01604600 
Al      3.56696000       0.71339000      22.15113000       13      -0.00063300       0.00030700      -0.02730400 
Al      4.99375000       2.14018000      12.06223000       13      -0.00198300      -0.00009500       0.02823700 
Al      3.56696000       0.71339000      10.04445000       13      -0.00131900       0.00072400      -0.01434200 
Al      4.99375000       2.14018000      24.16891000       13      -0.00114400      -0.00010400       0.01477800 
Al      3.56696000       0.71339000      18.11557000       13      -0.00103500       0.00063900      -0.00867600 
Al      4.99375000       2.14018000      16.09779000       13      -0.00281000       0.00002000       0.00761100 
Al      3.56696000       0.71339000      26.18669000       13      -0.00012600      -0.00010100      -0.12664500 
Al      4.99375000       2.14018000       8.02667000       13      -0.00164400      -0.00095400       0.12648700 
Al      3.56696000       3.56696000       6.00889000       13      -0.00273900      -0.00232700      -0.10840700 
Al      4.99375000       4.99375000      28.20447000       13       0.00258200       0.00203700       0.10746000 
Al      3.56696000       3.56696000      14.08001000       13      -0.00178600      -0.00150800       0.01535700 
Al      4.99375000       4.99375000      20.13335000       13       0.00200500       0.00138100      -0.01615800 
Al      3.56696000       3.56696000      22.15113000       13      -0.00190000      -0.00089400      -0.02717600 
Al      4.99375000       4.99375000      12.06223000       13       0.00140000       0.00058700       0.02803600 
Al      3.56696000       3.56696000      10.04445000       13      -0.00207100      -0.00130200      -0.01426200 
Al      4.99375000       4.99375000      24.16891000       13       0.00119100       0.00084800       0.01472300 
Al      3.56696000       3.56696000      18.11557000       13      -0.00285000      -0.00140900      -0.00839900 
Al      4.99375000       4.99375000      16.09779000       13       0.00210800       0.00082100       0.00709300 
Al      3.56696000       3.56696000      26.18669000       13      -0.00100800      -0.00121700      -0.12637900 
Al      4.99375000       4.99375000       8.02667000       13       0.00167700       0.00152100       0.12632100 
Al      3.56696000       6.42053000       6.00889000       13       0.00177500       0.00159500      -0.10758000 
Al      4.99375000       7.84732000      28.20447000       13       0.00003300      -0.00097300       0.10786600 
Al      3.56696000       6.42053000      14.08001000       13       0.00131000       0.00091600       0.01634400 
Al      4.99375000       7.84732000      20.13335000       13       0.00004400      -0.00072000      -0.01507200 
Al      3.56696000       6.42053000      22.15113000       13       0.00039500       0.00052900      -0.02784800 
Al      4.99375000       7.84732000      12.06223000       13      -0.00048500      -0.00046400       0.02753200 
Al      3.56696000       6.42053000      10.04445000       13       0.00029700       0.00058900      -0.01439200 
Al      4.99375000       7.84732000      24.16891000       13      -0.00024800      -0.00074400       0.01468000 
Al      3.56696000       6.42053000      18.11557000       13       0.00037800       0.00056000      -0.00738700 
Al      4.99375000       7.84732000      16.09779000       13      -0.00052400      -0.00074900       0.00728200 
Al      3.56696000       6.42053000      26.18669000       13       0.00187400       0.00133400      -0.12637600 
Al      4.99375000       7.84732000       8.02667000       13      -0.00017200      -0.00057500       0.12646400 
Al      6.42053000       0.71339000       6.00889000       13      -0.00049000      -0.00112700      -0.10659600 
Al      7.84732000       2.14018000      28.20447000       13       0.00233500       0.00178300       0.10884700 
Al      6.42053000       0.71339000      14.08001000       13      -0.00046700      -0.00077300       0.01675600 
Al      7.84732000       2.14018000      20.13335000       13       0.00128100       0.00116800      -0.01474000 
Al      6.42053000       0.71339000      22.15113000       13      -0.00004600      -0.00076000      -0.02813400 
Al      7.84732000       2.14018000      12.06223000       13       0.00203300       0.00156000       0.02634500 
Al      6.42053000       0.71339000      10.04445000       13       0.00048700      -0.00001600      -0.01457800 
Al      7.84732000       2.14018000      24.16891000       13       0.00155400       0.00098400       0.01381700 
Al      6.42053000       0.71339000      18.11557000       13       0.00034700      -0.00081700      -0.00678800 
Al      7.84732000       2.14018000      16.09779000       13       0.00277200       0.00183100       0.00908500 
Al      6.42053000       0.71339000      26.18669000       13      -0.00129000      -0.00140900      -0.12630100 
Al      7.84732000       2.14018000       8.02667000       13       0.00121700       0.00147000       0.12630800 
Al      6.42053000       3.56696000       6.00889000       13       0.00248900       0.00270100      -0.10817900 
Al      7.84732000       4.99375000      28.20447000       13       0.00016900      -0.00050800       0.11055600 
Al      6.42053000       3.56696000      14.08001000       13       0.00159500       0.00207500       0.01506200 
Al      7.84732000       4.99375000      20.13335000       13      -0.00020100      -0.00028800      -0.01464000 
Al      6.42053000       3.56696000      22.15113000       13       0.00195900       0.00146900      -0.02739800 
Al      7.84732000       4.99375000      12.06223000       13       0.00005400      -0.00053500       0.02693200 
Al      6.42053000       3.56696000      10.04445000       13       0.00178700       0.00104500      -0.01451800 
Al      7.84732000       4.99375000      24.16891000       13       0.00080200      -0.00073400       0.01369000 
Al      6.42053000       3.56696000      18.11557000       13       0.00275500       0.00201800      -0.00836400 
Al      7.84732000       4.99375000      16.09779000       13       0.00019400      -0.00074100       0.00952500 
Al      6.42053000       3.56696000      26.18669000       13       0.00119800       0.00197800      -0.12644000 
Al      7.84732000       4.99375000       8.02667000       13      -0.00081900      -0.00012600       0.12659200 
Al      6.42053000       6.42053000       6.00889000       13      -0.00080400      -0.00154900      -0.10864700 
Al      7.84732000       7.84732000      28.20447000       13      -0.00068200      -0.00132800       0.10836400 
Al      6.42053000       6.42053000      14.08001000       13      -0.00114900      -0.00123700       0.01491300 
Al      7.84732000       7.84732000      20.13335000       13      -0.00035600      -0.00100000      -0.01570500 
Al      6.42053000       6.42053000      22.15113000       13       0.00004300      -0.00068700      -0.02736800 
Al      7.84732000       7.84732000      12.06223000       13       0.00041300      -0.00107400       0.02745100 
Al      6.42053000       6.42053000      10.04445000       13      -0.00012000      -0.00103900      -0.01456600 
Al      7.84732000       7.84732000      24.16891000       13       0.00045300      -0.00024400       0.01410900 
Al      6.42053000       6.42053000      18.11557000       13      -0.00013200      -0.00110200      -0.00773300 
Al      7.84732000       7.84732000      16.09779000       13       0.00090600      -0.00125600       0.00852600 
Al      6.42053000       6.42053000      26.18669000       13      -0.00079000      -0.00058000      -0.12647200 
Al      7.84732000       7.84732000       8.02667000       13      -0.00129800      -0.00132300       0.12652200 
108
Lattice="8.56071 0.0 0.0 1.6e-07 8.56071 0.0 6.3e-07 6.3e-07 34.21336" Properties=species:S:1:pos:R:3:Z:I:1:force:R:3 energy=-395.89863074 pbc="T T T"
Al      0.71411000       0.71616000       6.00629000       13       0.00745800      -0.00776000      -0.09281700 
Al      2.14488000       2.13773000      28.20413000       13      -0.01446600       0.01466600       0.11248900 
Al      0.70972000       0.71841000      14.08206000       13       0.01968900      -0.01126300      -0.01130200 
Al      2.14008000       2.14292000      20.13478000       13       0.00953600      -0.00105800      -0.04696900 
Al      0.71533000       0.71122000      22.14959000       13      -0.01175200       0.00101200      -0.01672500 
Al      2.14405000       2.14371000      12.06001000       13      -0.01248900      -0.02248000       0.04435500 
Al      0.71538000       0.71510000      10.04443000       13      -0.00202000      -0.00787100      -0.02261700 
Al      2.13612000       2.13738000      24.17036000       13       0.01235600       0.00463900       0.00488000 
Al      0.71041000       0.71239000      18.11456000       13       0.02619500       0.01797100      -0.00105900 
Al      2.13784000       2.13137000      16.09791000       13       0.01435400       0.04527400       0.02246800 
Al      0.71303000       0.71148000      26.18825000       13       0.00545500       0.00716000      -0.14120100 
Al      2.14459000       2.14253000       8.02585000       13      -0.01921500      -0.01052300       0.13949700 
Al      0.71606000       3.56398000       6.00593000       13      -0.01611400       0.01915000      -0.10110700 
Al      2.14308000       4.99235000      28.20389000       13      -0.02574400      -0.00232200       0.11242500 
Al      0.71716000       3.56477000      14.07871000       13      -0.00785400      -0.00055400       0.02729900 
Al      2.13775000       5.00018000      20.13690000       13       0.01598200      -0.01545600      -0.03482200 
Al      0.71424000       3.56459000      22.14265000       13      -0.00622200       0.02283000       0.02261300 
Al      2.14023000       4.98815000      12.06588000       13      -0.01077800       0.02890600       0.00459800 
Al      0.70868000       3.56425000      10.04502000       13       0.01711700       0.02231500      -0.03040100 
Al      2.14502000       4.98818000      24.17215000       13      -0.02664500       0.01782800       0.00475900 
Al      0.70921000       3.56512000      18.11612000       13       0.03106300       0.01387600      -0.02222300 
Al      2.13829000       4.99676000      16.09725000       13       0.00761200      -0.03048200       0.01874500 
Al      0.71391000       3.56317000      26.18593000       13       0.00993500       0.02810900      -0.12053900 
Al      2.13779000       4.99741000       8.02314000       13      -0.00699000      -0.01800900       0.14117100 
Al      0.70707000       6.42482000       6.00598000       13       0.01122000      -0.01297900      -0.11145000 
Al      2.14210000       7.85013000      28.19935000       13      -0.01294200      -0.00807500       0.14084100 
Al      0.71560000       6.42177000      14.08117000       13      -0.01310500       0.00284900       0.00946300 
Al      2.14182000       7.84863000      20.13234000       13       0.00541500       0.01291400      -0.01256300 
Al      0.71491000       6.42115000      22.15244000       13      -0.00972200      -0.00921200      -0.02033300 
Al      2.13909000       7.84847000      12.06335000       13      -0.00646500      -0.00215900       0.03561400 
Al      0.71444000       6.41960000      10.04574000       13      -0.01180400      -0.00876800      -0.00194800 
Al      2.14239000       7.84897000      24.16764000       13      -0.00582500      -0.01425400       0.03222700 
Al      0.71446000       6.42688000      18.11655000       13      -0.01088300      -0.02838300      -0.02586900 
Al      2.13836000       7.84785000      16.09474000       13       0.01658100      -0.00076700       0.01562200 
Al      0.71207000       6.42578000      26.19212000       13       0.00654700      -0.03408800      -0.15313000 
Al      2.14185000       7.84224000       8.02803000       13      -0.00288900       0.02888900       0.11730700 
Al      3.56829000       0.71228000       6.01122000       13      -0.00887500       0.00315100      -0.11408800 
Al      4.99598000       2.14238000      28.20645000       13       0.00032000      -0.00803400       0.10240200 
Al      3.57342000       0.71249000      14.07976000       13      -0.02132900       0.00785000       0.01338000 
Al      4.99183000       2.13544000      20.13121000       13       0.01481600       0.01977400      -0.01112500 
Al      3.56627000       0.71609000      22.14788000       13       0.00714200      -0.02198100      -0.01822300 
Al      4.99542000       2.13686000      12.05792000       13      -0.00419500       0.02373100       0.05048800 
Al      3.56178000       0.71206000      10.04935000       13       0.02009200       0.00403200      -0.05140500 
Al      4.99537000       2.13906000      24.16728000       13      -0.01316700       0.00038900       0.02586300 
Al      3.57350000       0.71379000      18.11577000       13      -0.03073100       0.00468600      -0.00576200 
Al      4.99381000       2.14189000      16.10413000       13      -0.00711600      -0.00351900      -0.02738600 
Al      3.56900000       0.71441000      26.18962000       13      -0.00131000       0.01166500      -0.14786600 
Al      4.99070000       2.14728000       8.02695000       13       0.00151200      -0.04045700       0.13944000 
Al      3.56573000       3.56902000       6.01228000       13       0.00996400      -0.01054200      -0.13128800 
Al      4.99237000       4.98867000      28.20069000       13       0.00030000       0.02205000       0.11865000 
Al      3.56726000       3.56415000      14.07849000       13       0.01109100      -0.00865100       0.03064400 
Al      4.99449000       4.99784000      20.13084000       13      -0.00836300      -0.01997600      -0.00968900 
Al      3.56724000       3.56463000      22.14684000       13      -0.00314600       0.01523300      -0.01876100 
Al      4.99102000       4.99482000      12.06150000       13       0.01490700      -0.00086600       0.03046400 
Al      3.56580000       3.56906000      10.04556000       13      -0.01190100       0.00325100      -0.03253600 
Al      4.99514000       4.99173000      24.16765000       13      -0.00226100       0.00558900       0.02589700 
Al      3.57144000       3.57230000      18.11400000       13      -0.04383400      -0.00907400       0.00128400 
Al      4.99408000       4.99066000      16.09749000       13      -0.00813400       0.03207200       0.00612300 
Al      3.56851000       3.56721000      26.18333000       13       0.00403100      -0.01460300      -0.12437400 
Al      4.99454000       4.99320000       8.02818000       13      -0.00505300       0.00832500       0.13054000 
Al      3.56998000       6.41682000       6.01116000       13      -0.00957200       0.01639100      -0.12095100 
Al      4.98965000       7.84765000      28.20570000       13       0.02825200      -0.00695200       0.11515200 
Al      3.56541000       6.41907000      14.07670000       13       0.00998200       0.00087500       0.02775300 
Al      4.99537000       7.84370000      20.13508000       13       0.00142100       0.00473600      -0.01413400 
Al      3.56870000       6.41786000      22.15279000       13      -0.00238000       0.01379700      -0.02740500 
Al      4.99253000       7.85037000      12.06351000       13       0.00031100      -0.02388800       0.02206900 
Al      3.56365000       6.41995000      10.04481000       13       0.00544200      -0.00220800      -0.01543300 
Al      4.99091000       7.84804000      24.17198000       13       0.00712600      -0.01131700       0.00463000 
Al      3.56192000       6.42408000      18.11360000       13       0.02135200      -0.00480500      -0.01128500 
Al      4.99262000       7.85005000      16.09949000       13       0.00895900      -0.01835600       0.00459500 
Al      3.56553000       6.42174000      26.19085000       13       0.00698200      -0.00523500      -0.15594700 
Al      4.99645000       7.84447000       8.02619000       13      -0.01153400       0.02053600       0.13469000 
Al      6.42171000       0.71303000       6.01007000       13      -0.01750800       0.00075000      -0.10425100 
Al      7.84825000       2.14188000      28.19818000       13       0.00277300      -0.00515200       0.13746000 
Al      6.42082000       0.71609000      14.07906000       13      -0.00658100       0.00680400       0.02171500 
Al      7.85090000       2.14155000      20.13913000       13      -0.01804900      -0.00341100      -0.03388200 
Al      6.42066000       0.71413000      22.15156000       13      -0.00094100      -0.01477000      -0.02695600 
Al      7.84801000       2.13667000      12.05675000       13      -0.00191300       0.01363900       0.05007700 
Al      6.41838000       0.71111000      10.04570000       13      -0.01103600       0.00279700      -0.03550300 
Al      7.84666000       2.13974000      24.17267000       13       0.00678300      -0.00284500      -0.00659200 
Al      6.42420000       0.71547000      18.11579000       13      -0.01533500      -0.00764100      -0.00564700 
Al      7.84511000       2.14011000      16.09852000       13       0.00103400       0.01313200       0.00122700 
Al      6.41806000       0.71415000      26.18556000       13       0.00010700      -0.00812600      -0.12334100 
Al      7.84400000       2.14165000       8.03000000       13       0.01514500       0.00068300       0.11277100 
Al      6.42028000       3.56579000       6.01117000       13       0.01107500       0.00986800      -0.11791400 
Al      7.84288000       4.99376000      28.20759000       13       0.02609300       0.00269900       0.11153600 
Al      6.42053000       3.56865000      14.08104000       13      -0.00184400      -0.01198000       0.00713600 
Al      7.85080000       4.99219000      20.13047000       13      -0.01413900       0.01385700      -0.00816100 
Al      6.41859000       3.56592000      22.14982000       13       0.01142800      -0.00068400      -0.03060300 
Al      7.84684000       4.98894000      12.06648000       13      -0.00125800       0.02774900       0.00984200 
Al      6.41746000       3.56539000      10.04708000       13       0.00160000       0.01052500      -0.02498600 
Al      7.84839000       4.99185000      24.16735000       13       0.02453700       0.00171500       0.01747100 
Al      6.41708000       3.56523000      18.11360000       13       0.01849200       0.01111600       0.01181500 
Al      7.84943000       4.99214000      16.09796000       13      -0.00244500       0.01377400       0.01557900 
Al      6.42483000       3.56813000      26.18451000       13      -0.02058400      -0.00731000      -0.12869100 
Al      7.84478000       4.99816000       8.02949000       13       0.01663600      -0.01990100       0.11793100 
Al      6.42258000       6.41708000       6.00594000       13      -0.00383400       0.01535700      -0.10999000 
Al      7.84520000       7.84793000      28.20187000       13       0.00396800      -0.00322400       0.12678500 
Al      6.41921000       6.42125000      14.08038000       13       0.00058800       0.00375900       0.01974100 
Al      7.84809000       7.85105000      20.12853000       13      -0.00305600      -0.01530400       0.01635600 
Al      6.42168000       6.41549000      22.14960000       13       0.00363400       0.02876900      -0.02238400 
Al      7.84576000       7.84872000      12.06329000       13       0.01097600      -0.01937400       0.02265800 
Al      6.41793000       6.42242000      10.04347000       13       0.00652000      -0.01371000       0.01071800 
Al      7.84472000       7.84712000      24.16852000       13       0.00441500      -0.00598500       0.01770600 
Al      6.42029000       6.42099000      18.11789000       13       0.00191500      -0.00586900      -0.03170200 
Al      7.84699000       7.85170000      16.09751000       13      -0.00954500      -0.02724900       0.01154100 
Al      6.42223000       6.41635000      26.18491000       13      -0.01646400       0.01687000      -0.12723900 
Al      7.84823000       7.84979000       8.03251000       13       0.00291300       0.00339100       0.09924400 
108
Lattice="8.56071 0.0 0.0 1.6e-07 8.56071 0.0 6.3e-07 6.3e-07 34.21336" Properties=species:S:1:pos:R:3:Z:I:1:force:R:3 energy=-395.88133621 pbc="T T T"
Al      0.71483000       0.71892000       6.00367000       13       0.01193600      -0.01586700      -0.07948600 
Al      2.14958000       2.13529000      28.20380000       13      -0.02380900       0.01978500       0.11278500 
Al      0.70604000       0.72342000      14.08410000       13       0.05053100      -0.03305000      -0.03900300 
Al      2.13998000       2.14567000      20.13621000       13       0.01934500      -0.00406400      -0.07912400 
Al      0.71726000       0.70906000      22.14804000       13      -0.02401000       0.00334800      -0.00237800 
Al      2.14793000       2.14724000      12.05780000       13      -0.02404800      -0.04949600       0.05475400 
Al      0.71736000       0.71680000      10.04442000       13      -0.01071500      -0.02037900      -0.02786700 
Al      2.13206000       2.13457000      24.17180000       13       0.03361900       0.00840500      -0.00833300 
Al      0.70743000       0.71139000      18.11355000       13       0.05609400       0.03392500       0.00415200 
Al      2.13550000       2.12256000      16.09804000       13       0.03244100       0.07983900       0.02792500 
Al      0.71267000       0.70957000      26.18979000       13       0.00733500       0.01109600      -0.14795800 
Al      2.14900000       2.14489000       8.02504000       13      -0.04465000      -0.01877900       0.14478600 
Al      0.71873000       3.56099000       6.00295000       13      -0.03074700       0.03424000      -0.08780900 
Al      2.14597000       4.99096000      28.20333000       13      -0.03997100      -0.01074000       0.11286300 
Al      0.72092000       3.56259000      14.07741000       13      -0.02675500       0.00508800       0.03850800 
Al      2.13532000       5.00660000      20.14045000       13       0.03377900      -0.03848000      -0.06400800 
Al      0.71509000       3.56221000      22.13418000       13      -0.00185700       0.02339200       0.08779500 
Al      2.14028000       4.98255000      12.06952000       13      -0.02209000       0.05482800      -0.01448200 
Al      0.70398000       3.56155000      10.04559000       13       0.03546900       0.03375400      -0.03986400 
Al      2.14986000       4.98262000      24.17540000       13      -0.05466100       0.03841900      -0.01346400 
Al      0.70504000       3.56329000      18.11666000       13       0.06293600       0.02311700      -0.02940800 
Al      2.13639000       4.99978000      16.09670000       13       0.01241400      -0.05294500       0.02343500 
Al      0.71444000       3.55939000      26.18516000       13       0.02321700       0.05676800      -0.10582500 
Al      2.13540000       5.00108000       8.01961000       13      -0.01338500      -0.03759300       0.15283800 
Al      0.70075000       6.42910000       6.00307000       13       0.02616100      -0.01891600      -0.10670400 
Al      2.14403000       7.85294000      28.19424000       13      -0.02181200      -0.01195500       0.16718000 
Al      0.71780000       6.42301000      14.08233000       13      -0.03089300       0.00344800      -0.00322000 
Al      2.14346000       7.84994000      20.13133000       13       0.00730100       0.02047800      -0.00276100 
Al      0.71642000       6.42176000      22.15375000       13      -0.01671200      -0.01426600      -0.01818900 
Al      2.13800000       7.84961000      12.06448000       13      -0.01450000      -0.00313300       0.04447600 
Al      0.71549000       6.41867000      10.04703000       13      -0.02187700      -0.01613300       0.01892700 
Al      2.14460000       7.85063000      24.16637000       13      -0.01673300      -0.03413400       0.04111100 
Al      0.71552000       6.43323000      18.11754000       13      -0.01796900      -0.06078600      -0.03842400 
Al      2.13655000       7.84839000      16.09170000       13       0.02385300       0.00452200       0.01623300 
Al      0.71074000       6.43102000      26.19753000       13       0.01719800      -0.06923400      -0.17787000 
Al      2.14352000       7.83717000       8.02941000       13      -0.00787200       0.06053100       0.10052400 
Al      3.56962000       0.71117000       6.01354000       13      -0.00400500      -0.00181500      -0.11655500 
Al      4.99821000       2.14458000      28.20844000       13       0.00293300      -0.01249600       0.09646000 
Al      3.57987000       0.71158000      14.07951000       13      -0.05683200       0.01622700       0.01660800 
Al      4.98991000       2.13071000      20.12908000       13       0.02609400       0.04801300      -0.00715600 
Al      3.56559000       0.71879000      22.14463000       13       0.01499100      -0.04191100       0.00055500 
Al      4.99709000       2.13355000      12.05361000       13      -0.00543400       0.04079300       0.07421700 
Al      3.55661000       0.71073000      10.05425000       13       0.04452000       0.00349900      -0.07826200 