144
Lattice="17.121440767 0.0 0.0 0.0 11.414293845 0.0 0.0 0.0 30.088905725" Properties=species:S:1:pos:R:3:Z:I:1:force:R:3 energy=-510.31745079 pbc="T T T"
Al      1.36209000       1.70758000       9.81340000       13      -0.00242000      -0.36848400       0.06547100 
Al      4.11866000       1.50557000       9.83064000       13      -0.26908500      -0.00051500       0.20324000 
Al      6.75041000       1.31136000       9.84507000       13       0.52170600       0.12447800       0.10130200 
Al      9.88301000       1.23490000       9.75818000       13      -0.02355800       0.41553500       0.33118900 
Al     12.77297000       1.52132000       9.72930000       13      -0.06090100       0.39983000       0.40026200 
Al     15.57427000       1.15273000       9.85817000       13       0.34366000       0.18037000       0.07105500 
Al      1.55965000       4.51440000      10.09294000       13       0.13046600      -0.39135600      -0.25342900 
Al      4.51676000       4.46295000       9.96177000       13      -0.21707900      -0.31908200      -0.07782400 
Al      7.29378000       4.20994000       9.95279000       13      -0.43016500       0.20327700       0.00322900 
Al      9.97706000       4.16514000       9.74912000       13       0.21456500      -0.48358100       0.23284800 
Al     13.08606000       4.40097000       9.72756000       13      -0.32206100      -0.03821900       0.27218500 
Al     15.89549000       4.29064000       9.97587000       13      -0.05698500      -0.21879700      -0.03957400 
Al      1.40038000       7.18087000      10.03948000       13      -0.40039700       0.41035500       0.07062600 
Al      4.10366000       7.12085000       9.98868000       13       0.30557800       0.20494400      -0.00862900 
Al      6.91927000       7.26252000       9.98761000       13       0.48938800      -0.13248400      -0.03857800 
Al      9.86412000       6.85692000       9.74236000       13      -0.20765200       0.53861300       0.38215400 
Al     12.69216000       7.38498000      10.01421000       13      -0.01409900      -0.34362400      -0.39555600 
Al     15.44351000       7.02653000       9.97549000       13       0.53001100      -0.16661200      -0.13986900 
Al      1.53888000      10.06767000       9.67925000       13      -0.91167800       0.05237300       0.51717100 
Al      4.08800000       9.96533000       9.83071000       13       0.99048400       0.16123000       0.18499800 
Al      7.27455000      10.11341000      10.14383000       13      -0.31326200      -0.42008600      -0.38583600 
Al     10.11335000       9.97904000      10.07241000       13      -0.04429000      -0.44859600       0.08246200 
Al     12.85926000      10.27257000       9.70934000       13      -0.14713600      -0.37869000       0.32973100 
Al     15.55107000       9.72293000       9.86192000       13       0.39649900       0.52723700      -0.32462500 
Al      0.17705000      11.40805000      11.93831000       13      -0.68863700       0.06277600      -0.24788500 
Al      2.83092000       0.12172000      11.94928000       13       0.27187800       0.11047300       0.09529500 
Al      5.57806000      11.30471000      12.12912000       13       0.18882600       0.70201800      -0.42755300 
Al      8.51657000       0.13743000      12.05122000       13       0.17126500      -0.88589800       0.22255200 
Al     11.41311000       0.08523000      12.09364000       13       0.08876500      -0.45457500      -0.63395900 
Al     14.26201000      11.26621000      11.95874000       13      -0.07098400       0.49213400       0.14082500 
Al      0.11158000       2.78623000      11.95389000       13      -0.42759000       0.55558000      -0.15219600 
Al      3.00107000       3.05727000      12.00614000       13      -0.35180700      -0.21815100      -0.04702600 
Al      5.64118000       2.76993000      11.92077000       13       0.16632200       0.04536700       0.36638900 
Al      8.42648000       2.63762000      11.90745000       13       0.30690000       1.01275500       0.13986900 
Al     11.35701000       2.85325000      11.91570000       13       0.04808500      -0.28399600      -0.22171200 
Al     14.34754000       2.78493000      11.82735000       13      -0.23541300       0.12105600       0.12159800 
Al      0.01854000       5.60522000      12.13583000       13      -0.39219400       0.48344400      -0.11726300 
Al      2.76872000       5.93658000      12.15139000       13       0.87935500      -0.36686600      -0.31663100 
Al      5.73405000       5.76175000      12.05609000       13      -0.07023800       0.05125400       0.18426900 
Al      8.51927000       5.63997000      12.08934000       13      -0.21070300       0.26058800      -0.15995400 
Al     11.19179000       5.49961000      11.85749000       13       0.67071400       0.32457400       0.25804400 
Al     14.21067000       5.64293000      11.95683000       13      -0.06356000      -0.25613300       0.36349000 
Al     17.05894000       8.69864000      11.88385000       13       0.49606000      -0.43453900       0.29430400 
Al      3.04256000       8.75629000      12.06598000       13      -1.20152100      -0.40383900      -0.11888400 
Al      5.63248000       8.62723000      11.97179000       13       0.74385100      -0.45486900       0.11130200 
Al      8.57212000       8.68346000      12.09580000       13      -0.18810500      -0.58476800      -0.13154600 
Al     11.34514000       8.26631000      12.06999000       13      -0.08284400       0.65227700       0.09542000 
Al     14.31582000       8.57021000      11.95403000       13      -0.75841800      -0.07020200       0.46680500 
Al      1.38507000       1.61476000      13.88524000       13       0.36560000      -0.46680100       0.71583600 
Al      4.26473000       1.45245000      14.19216000       13      -0.22569000      -0.10663300      -0.73351800 
Al      7.07267000       1.35450000      14.12377000       13       0.15510100       0.37324900      -0.21878700 
Al     10.09905000       1.42272000      14.02484000       13      -0.62506000       0.04199200       0.22573400 
Al     12.81101000       1.40010000      14.00239000       13       0.49253500      -0.26264500      -0.13406800 
Al     15.66937000       1.59404000      13.91111000       13       0.05107100      -0.59535000       0.11306400 
Al      1.55460000       4.40934000      14.03725000       13      -0.31798700      -0.22499000       0.32858400 
Al      4.34448000       4.33456000      14.11197000       13      -0.13524400      -0.13949700      -0.11627500 
Al      7.05619000       4.14692000      13.97172000       13       0.17799100       0.09922800       0.25302200 
Al      9.88606000       4.22527000      14.11340000       13       0.12315300      -0.16885100      -0.58053300 
Al     12.75926000       4.01596000      14.00377000       13       0.41663700       0.75453300      -0.62261900 
Al     15.64780000       4.35019000      14.18354000       13      -0.03634600      -0.34766100      -1.01051200 
Al      1.51642000       7.24604000      13.97319000       13      -0.49583600       0.36956400       0.74717200 
Al      4.43338000       7.07015000      14.24008000       13      -0.45964300       0.64078100      -0.62738300 
Al      7.18895000       7.14823000      14.19255000       13      -0.11830100      -0.06486800      -0.50959600 
Al     10.00257000       7.08666000      14.12339000       13       0.10444900      -0.32040400      -0.07344000 
Al     12.87677000       6.89982000      13.98322000       13      -0.14777900       0.35764500       0.28996800 
Al     15.63795000       7.21313000      13.89640000       13       0.39558800       0.02549500       0.44296500 
Al      1.37217000      10.05195000      14.03970000       13       0.22431200      -0.01722900       0.08023800 
Al      4.40114000       9.86213000      14.01188000       13      -0.61957400       0.37872800       1.06544400 
Al      7.12225000      10.07166000      14.16270000       13       0.22246700      -0.47101300      -0.18411100 
Al      9.94192000       9.95840000      14.02197000       13      -0.01026200       0.34854800       0.17002400 
Al     12.62546000       9.93308000      14.07469000       13       0.53257700      -0.42075300      -0.33109700 
Al     15.62431000      10.10350000      14.02318000       13       0.46212500      -0.36517100      -0.25051000 
Al     16.98732000       0.09748000      16.09943000       13       0.25409300      -0.23395300      -0.34394000 
Al      2.70768000       0.14600000      16.02767000       13       0.03397100      -0.27558800       0.00139600 
Al      5.65947000       0.00226000      16.07274000       13      -0.01423800       0.01646600       0.26104300 
Al      8.56748000       0.05126000      16.13501000       13       0.03337300      -0.57459100      -0.58569400 
Al     11.46011000       0.12187000      16.10410000       13      -0.16518600      -0.58584100      -0.13886400 
Al     14.16639000      11.26437000      15.86165000       13       0.12980200       0.54521600       0.78376100 
Al     17.10203000       2.79797000      16.07718000       13      -0.20229600       0.49585000      -0.28697400 
Al      2.77650000       2.98391000      16.05691000       13       0.13040900      -0.00982500      -0.12788800 
Al      5.63334000       2.77214000      16.14494000       13       0.56125000       0.34491500      -0.12216800 
Al      8.60752000       2.75810000      16.05965000       13      -0.31248000       0.22042900      -0.31231600 
Al     11.47358000       2.85787000      16.06129000       13      -0.14136100      -0.49046100       0.16610400 
Al     14.29485000       2.79958000      16.00251000       13      -0.07564100      -0.33930300       0.42887700 
Al     17.00154000       5.67891000      15.91881000       13       0.71212900       0.61757700       0.58126400 
Al      2.87902000       5.89450000      16.23705000       13      -0.61882300      -0.36942800      -0.51489800 
Al      5.65033000       5.77820000      16.12624000       13       0.87253300      -0.54435500       0.34856900 
Al      8.55466000       5.52813000      16.05170000       13      -0.04956100       0.45079100       0.07010500 
Al     11.59817000       5.44725000      15.95409000       13      -0.69182200       1.17293200       0.28664900 
Al     14.28360000       5.52326000      16.12393000       13      -0.05278400       0.76662700       0.06012800 
Al      0.11209000       8.64580000      16.15686000       13      -0.53358600      -0.36358000      -0.79755000 
Al      2.82905000       8.67647000      16.23438000       13       0.36487000      -0.11052800      -0.72021000 
Al      5.78106000       8.63889000      16.27996000       13      -0.25378200      -0.24871700      -0.66360400 
Al      8.62423000       8.50884000      16.00874000       13      -0.24639100       0.31257300       0.35046000 
Al     11.32498000       8.60736000      16.09475000       13       0.70686200      -0.20612500      -0.02435200 
Al     14.41498000       8.51867000      16.05586000       13      -0.64263500      -0.40466200      -0.33509100 
Al      1.40877000       1.72729000      18.06857000       13       0.07190400      -0.97856500       0.08311300 
Al      4.23423000       1.43797000      18.06730000       13       0.02231100      -0.18216500      -0.17173900 
Al      7.32801000       1.31065000      18.14084000       13      -0.62765600       0.34227400       0.13586700 
Al     10.03285000       1.46698000      17.93689000       13       0.31477200      -0.06156600       0.88645700 
Al     12.88422000       1.35977000      18.15373000       13      -0.24942400       0.40425000      -0.18412500 
Al     15.59972000       1.43215000      18.05564000       13       0.25205400       0.23665700       0.10157100 
Al      1.27125000       4.39586000      17.97822000       13       0.29932300       0.40402600       0.33037800 
Al      4.31144000       4.20043000      18.00160000       13      -0.29174700       0.34607000       0.24988400 
Al      7.37166000       4.14443000      18.07164000       13      -0.61161600       0.26613600       0.26427500 
Al     10.11573000       4.30881000      18.08640000       13      -0.01917500      -0.31815600      -0.21204600 
Al     12.87759000       4.19691000      18.10322000       13       0.07555200      -0.13714800       0.16721900 
Al     15.58722000       4.45598000      18.36966000       13       0.36005300      -0.68060800      -0.50782800 
Al      1.34306000       7.28670000      18.16357000       13       0.23719900      -0.46075200       0.00430600 
Al      4.33917000       7.07296000      18.10786000       13      -0.08931000       0.59714400       0.32002500 
Al      7.33904000       7.21358000      18.07847000       13      -0.51822300      -0.44765200       0.11673300 
Al     10.03587000       7.10520000      17.98642000       13       0.34971000       0.04984400      -0.00239500 
Al     12.84653000       7.11685000      18.03857000       13       0.13873100      -0.10760800      -0.13097900 
Al     15.76035000       7.07305000      18.10948000       13      -0.23511000       0.30993400       0.01911300 
Al      1.33998000      10.05707000      18.07226000       13       0.22709700       0.41415500       0.21170700 
Al      4.23281000      10.10735000      18.01360000       13      -0.05919900      -0.30998000       0.34038000 
Al      7.06141000      10.00202000      18.16069000       13       0.50490300      -0.13719000      -0.04839700 
Al      9.93500000      10.03302000      18.02468000       13       0.01004600      -0.19642200       0.25983900 
Al     12.77093000      10.00825000      18.21563000       13       0.12505100      -0.28488000      -0.69379100 
Al     15.60706000       9.90754000      17.99849000       13       0.22619900       0.41350800       0.28727300 
Al      0.15196000       0.09782000      20.01824000       13      -0.32255000       0.14208800       0.10178100 
Al      2.98958000      11.34325000      20.18460000       13      -0.31621100       0.13069700      -0.11892500 
Al      5.70179000      11.35331000      20.05920000       13       0.09963500       0.10101400       0.26138800 
Al      8.53921000      11.23551000      20.29169000       13      -0.03451900       0.33531300      -0.19474600 
Al     11.30425000      11.25306000      20.15645000       13       0.08494000       0.27527100       0.01776500 
Al     14.30154000       0.00885000      20.00645000       13       0.18923700      -0.02618000       0.49781500 
Al      0.04310000       2.98805000      20.13231000       13      -0.00038000      -0.17696100       0.06549700 
Al      2.96208000       2.74508000      20.12124000       13      -0.31086500       0.45001100       0.08241300 
Al      5.72274000       2.79693000      19.99106000       13       0.38287100       0.03887400       0.12920300 
Al      8.78515000       2.70006000      20.16367000       13      -0.74455400       0.11433000      -0.16531300 
Al     11.36675000       2.70352000      20.37133000       13       0.66150100      -0.15326400      -0.48089900 
Al     14.25736000       3.00459000      20.37528000       13      -0.06674700      -0.52191500      -0.30633700 
Al      0.15374000       5.82355000      20.30244000       13      -0.49714000       0.00271100      -0.17622600 
Al      2.80068000       5.86412000      20.21614000       13       0.32115300      -0.40237200      -0.26819800 
Al      5.56880000       5.59421000      20.02345000       13       0.50493000      -0.04023400       0.17211400 
Al      8.77742000       5.76622000      20.02248000       13      -0.46586300      -0.20405200       0.24576800 
Al     11.51021000       5.49449000      20.10597000       13      -0.03306700       0.37333000       0.10840000 
Al     14.22754000       5.69806000      20.39769000       13       0.12672500       0.49554900      -0.23971500 
Al     17.00682000       8.70301000      20.35420000       13       0.23641600      -0.02044500      -0.40533500 
Al      2.75096000       8.61882000      20.11606000       13       0.29930800       0.04213800      -0.04779100 
Al      5.82274000       8.40255000      20.17997000       13      -0.18408500       0.12450600      -0.15076600 
Al      8.71587000       8.55076000      20.23930000       13       0.01312100      -0.18539000      -0.24571400 
Al     11.57046000       8.40224000      20.14992000       13      -0.39439400      -0.03664900      -0.01596200 
Al     14.32636000       8.52705000      20.09013000       13      -0.14547400      -0.00798700       0.02283700 
144
Lattice="17.121440767 0.0 0.0 0.0 11.414293845 0.0 0.0 0.0 30.088905725" Properties=species:S:1:pos:R:3:Z:I:1:force:R:3 energy=-510.34037573 pbc="T T T"
Al      1.36268000       1.70979000       9.81104000       13       0.00235200      -0.36768300       0.06306400 
Al      4.12255000       1.50348000       9.83017000       13      -0.29650800       0.00267900       0.20430800 
Al      6.74739000       1.31549000       9.84658000       13       0.54573600       0.10594300       0.09961300 
Al      9.88292000       1.23716000       9.75920000       13      -0.02407800       0.40809400       0.33019300 
Al     12.77457000       1.51949000       9.72785000       13      -0.05739600       0.39665500       0.40716800 
Al     15.57752000       1.15563000       9.85613000       13       0.33668900       0.18069100       0.06944700 
Al      1.56131000       4.51572000      10.09270000       13       0.12980700      -0.39636600      -0.25155300 
Al      4.51336000       4.46053000       9.96277000       13      -0.21450100      -0.31081300      -0.07807700 
Al      7.29125000       4.20906000       9.95174000       13      -0.42706800       0.21054500      -0.00436500 
Al      9.97512000       4.15771000       9.74905000       13       0.22085900      -0.43628200       0.24278100 
Al     13.08573000       4.39932000       9.72869000       13      -0.32312700      -0.04347600       0.26519600 
Al     15.89914000       4.29252000       9.97498000       13      -0.06486700      -0.23390700      -0.03656900 
Al      1.40256000       7.17836000      10.03683000       13      -0.41024500       0.42624200       0.08496900 
Al      4.10609000       7.11964000       9.98799000       13       0.30973300       0.20100000       0.00132000 
Al      6.92244000       7.26063000       9.98632000       13       0.48466800      -0.12696700      -0.03761100 
Al      9.86207000       6.86225000       9.74515000       13      -0.20474600       0.51068000       0.37560400 
Al     12.69286000       7.38291000      10.00693000       13      -0.02673800      -0.33079400      -0.36292600 
Al     15.44359000       7.02179000       9.97831000       13       0.53485900      -0.12147800      -0.14761500 
Al      1.53487000      10.06536000       9.67957000       13      -0.87366800       0.05214700       0.51613300 
Al      4.09211000       9.96065000       9.83322000       13       0.96130700       0.17434300       0.16951700 
Al      7.27103000      10.11178000      10.14405000       13      -0.30175900      -0.40078400      -0.38308500 
Al     10.11177000       9.98145000      10.07176000       13      -0.04161600      -0.45131300       0.08608300 
Al     12.85968000      10.26932000       9.70854000       13      -0.15107100      -0.36620000       0.33552000 
Al     15.54912000       9.72597000       9.85874000       13       0.40974200       0.49485200      -0.31087800 
Al      0.17172000      11.41156000      11.93568000       13      -0.65988400       0.04859800      -0.24046800 
Al      2.83254000       0.12401000      11.94482000       13       0.24428300       0.09110300       0.11366800 
Al      5.57990000      11.30575000      12.12985000       13       0.17671700       0.69637000      -0.43205500 
Al      8.51794000       0.13838000      12.05020000       13       0.16923200      -0.89435000       0.21838900 
Al     11.41437000       0.08564000      12.09448000       13       0.08081000      -0.45739200      -0.64550700 
Al     14.26109000      11.26715000      11.95948000       13      -0.06469100       0.49945000       0.13232500 
Al      0.11241000       2.78544000      11.95476000       13      -0.42309600       0.56096700      -0.15822100 
Al      3.00287000       3.05857000      12.00487000       13      -0.36989200      -0.22183800      -0.04105100 
Al      5.64207000       2.77516000      11.92142000       13       0.16307900       0.03668500       0.37227000 
Al      8.42499000       2.63809000      11.90473000       13       0.30840300       1.01174300       0.14723900 
Al     11.35590000       2.85754000      11.92000000       13       0.04861700      -0.29909100      -0.23612100 
Al     14.34891000       2.78066000      11.82828000       13      -0.23811800       0.13848500       0.10420500 
Al      0.01960000       5.60428000      12.13756000       13      -0.39685600       0.49034500      -0.12032400 
Al      2.77065000       5.93832000      12.15280000       13       0.88069300      -0.37907700      -0.32746500 
Al      5.73941000       5.76094000      12.05570000       13      -0.10138800       0.05126300       0.17710400 
Al      8.51764000       5.63599000      12.08735000       13      -0.17444900       0.27399800      -0.16065500 
Al     11.19127000       5.50182000      11.85461000       13       0.66620500       0.32317800       0.25290500 
Al     14.21205000       5.64008000      11.95307000       13      -0.07316900      -0.24632300       0.39231900 
Al     17.05466000       8.69744000      11.88776000       13       0.50489400      -0.42472400       0.26916800 
Al      3.04380000       8.75527000      12.06442000       13      -1.19276100      -0.39794000      -0.10758400 
Al      5.63797000       8.62746000      11.97177000       13       0.71650700      -0.45288600       0.12732300 
Al      8.57215000       8.68478000      12.10087000       13      -0.18866000      -0.58926100      -0.15224700 
Al     11.34682000       8.26716000      12.07224000       13      -0.07605700       0.64305800       0.07716000 
Al     14.31321000       8.57605000      11.95410000       13      -0.76019900      -0.10265100       0.45255700 
Al      1.38407000       1.61637000      13.88793000       13       0.36642400      -0.47720300       0.69921500 
Al      4.26356000       1.44815000      14.18874000       13      -0.21182500      -0.07547300      -0.71842500 
Al      7.07293000       1.35213000      14.12229000       13       0.16102400       0.40151400      -0.21211100 
Al     10.09960000       1.42607000      14.02257000       13      -0.63436700       0.02778100       0.23523200 
Al     12.81128000       1.39807000      13.99861000       13       0.49411800      -0.23879600      -0.09753100 
Al     15.66710000       1.59482000      13.91031000       13       0.06079200      -0.60415800       0.12855300 
Al      1.55360000       4.41100000      14.03800000       13      -0.30754500      -0.24061800       0.33470800 
Al      4.34562000       4.33280000      14.11071000       13      -0.13597200      -0.13150900      -0.10266700 
Al      7.05992000       4.15132000      13.97024000       13       0.16147400       0.08214100       0.26269700 
Al      9.88635000       4.22262000      14.11290000       13       0.12923700      -0.15717400      -0.59050400 
Al     12.76058000       4.01618000      14.00073000       13       0.41898100       0.74776200      -0.59753700 
Al     15.64845000       4.34964000      14.18449000       13      -0.03961200      -0.34215900      -1.00620500 
Al      1.51888000       7.24293000      13.97496000       13      -0.51002700       0.39382100       0.75228900 
Al      4.42992000       7.07043000      14.24084000       13      -0.44557900       0.62719500      -0.63692100 
Al      7.18764000       7.14695000      14.18955000       13      -0.11325600      -0.05378700      -0.49909800 
Al     10.00392000       7.08356000      14.12462000       13       0.09368300      -0.30703000      -0.08569200 
Al     12.87819000       6.89757000      13.98443000       13      -0.14112800       0.35397900       0.28333700 
Al     15.63697000       7.21561000      13.89730000       13       0.38940300       0.00952600       0.44221200 
Al      1.36942000      10.05141000      14.03981000       13       0.22762300      -0.01760300       0.07015800 
Al      4.39872000       9.86270000      14.01434000       13      -0.61934600       0.37124700       1.03737400 
Al      7.11807000      10.07451000      14.16085000       13       0.24171500      -0.49281000      -0.16556500 
Al      9.94097000       9.96064000      14.02320000       13      -0.01444300       0.35179800       0.17776200 
Al     12.62431000       9.93399000      14.07793000       13       0.53435600      -0.42543200      -0.35601200 
Al     15.62660000      10.10104000      14.02255000       13       0.45714200      -0.35543900      -0.24789500 
Al     16.98832000       0.09710000      16.10020000       13       0.24675600      -0.23597400      -0.35021600 
Al      2.70846000       0.14733000      16.02222000       13       0.03067200      -0.29315800       0.02428600 
Al      5.65970000       0.00445000      16.07177000       13      -0.01425600       0.00864800       0.27007200 
Al      8.57045000       0.05230000      16.13957000       13       0.00799100      -0.58759400      -0.62427400 
Al     11.46020000       0.12237000      16.10425000       13      -0.16223800      -0.58754700      -0.14430200 
Al     14.16696000      11.26144000      15.85696000       13       0.12839000       0.57436100       0.79683000 
Al     17.10021000       2.79606000      16.07800000       13      -0.19840600       0.50280000      -0.28652000 
Al      2.77596000       2.98349000      16.05983000       13       0.13544000      -0.00291700      -0.15155400 
Al      5.63644000       2.77384000      16.14492000       13       0.54931200       0.34073800      -0.13591100 
Al      8.60564000       2.75800000      16.06003000       13      -0.31954700       0.22308600      -0.32133500 
Al     11.47150000       2.85840000      16.06018000       13      -0.13149700      -0.49101100       0.15467800 
Al     14.29208000       2.80072000      16.00511000       13      -0.07574500      -0.35706200       0.41032600 
Al     17.00138000       5.67793000      15.92056000       13       0.70189500       0.62128000       0.57629400 
Al      2.87526000       5.89441000      16.23939000       13      -0.59961300      -0.37351200      -0.51925100 
Al      5.65039000       5.77950000      16.12692000       13       0.86817900      -0.55562400       0.33989300 
Al      8.55755000       5.52682000      16.04911000       13      -0.06686300       0.46034800       0.08582800 
Al     11.59649000       5.44643000      15.95282000       13      -0.67715800       1.17309400       0.28917900 
Al     14.28320000       5.51927000      16.12727000       13      -0.04435700       0.77746900       0.04942100 
Al      0.10948000       8.64440000      16.15878000       13      -0.51558700      -0.36579300      -0.80898200 
Al      2.82997000       8.67482000      16.23282000       13       0.34538900      -0.10030100      -0.71084200 
Al      5.77816000       8.63736000      16.27806000       13      -0.23145900      -0.22837700      -0.66076100 
Al      8.62596000       8.50747000      16.00871000       13      -0.26033600       0.31600200       0.33624500 
Al     11.32861000       8.60825000      16.09274000       13       0.68917500      -0.21550900      -0.00855300 
Al     14.41280000       8.52225000      16.05796000       13      -0.64072900      -0.42674400      -0.34286800 
Al      1.41047000       1.72426000      18.06593000       13       0.05908700      -0.96368800       0.11039500 
Al      4.23246000       1.43840000      18.06491000       13       0.03116900      -0.19630600      -0.17343100 
Al      7.32684000       1.31122000      18.14095000       13      -0.62037900       0.34827600       0.15253900 
Al     10.03352000       1.47002000      17.93276000       13       0.31270500      -0.06166100       0.92076000 
Al     12.88515000       1.35555000      18.15225000       13      -0.25501300       0.41048400      -0.17533700 
Al     15.59844000       1.43328000      18.05633000       13       0.26304400       0.23267000       0.09635000 
Al      1.26911000       4.39740000      17.97723000       13       0.29725800       0.37712900       0.34651400 
Al      4.30925000       4.20024000      18.00109000       13      -0.27534300       0.34596000       0.25361400 
Al      7.37139000       4.14477000      18.07340000       13      -0.60945000       0.27064800       0.26003900 
Al     10.11544000       4.31237000      18.08595000       13      -0.01406300      -0.32781000      -0.21285200 
Al     12.87901000       4.19335000      18.10156000       13       0.06078800      -0.13010600       0.18548300 
Al     15.58800000       4.45791000      18.37427000       13       0.36101900      -0.69474800      -0.51162200 
Al      1.34428000       7.28769000      18.16543000       13       0.23086600      -0.45712700      -0.00342400 
Al      4.33973000       7.07345000      18.10671000       13      -0.09572000       0.59470800       0.33922400 
Al      7.33486000       7.21782000      18.07966000       13      -0.48957800      -0.46787800       0.10472900 
Al     10.03723000       7.10681000      17.98778000       13       0.33611300       0.05713900      -0.01647300 
Al     12.84602000       7.11497000      18.03503000       13       0.13926400      -0.10730300      -0.11285800 
Al     15.75861000       7.07243000      18.10848000       13      -0.23010300       0.31493000       0.02484900 
Al      1.33735000      10.05922000      18.07186000       13       0.24872100       0.40449900       0.21106300 
Al      4.23538000      10.10351000      18.01150000       13      -0.07130600      -0.28194700       0.36408200 