32
Lattice="7.5 0.0 0.0 0.0 7.5 0.0 0.0 0.0 7.5" Properties=species:S:1:pos:R:3:Z:I:1:force:R:3 energy=-108.35341474 pbc="T T T"
Al      7.43696000       0.09014000       0.00655000       13       0.63943600      -0.01304500       0.58913900 
Al      7.42847000       1.93280000       1.79149000       13       0.82826100      -0.57609100       0.52050800 
Al      1.98429000       7.21934000       1.88881000       13       0.36016300       2.83742200      -0.41367900 
Al      1.90683000       1.94322000       0.08946000       13       0.22775900      -1.52931000      -1.13588900 
Al      7.38217000       0.08946000       3.56677000       13       1.28017000      -0.82108400       0.83434400 
Al      7.45415000       1.81682000       5.55210000       13       0.91048800       0.56356700       0.09963200 
Al      1.76890000       7.44922000       5.64720000       13       0.56240100       0.40473400      -0.32126600 
Al      1.95353000       1.77087000       3.68093000       13      -1.77837200       0.14757500       0.59643500 
Al      0.05525000       3.65836000       7.39996000       13      -1.01603900       1.22537400       0.57177700 
Al      0.16404000       5.68109000       1.80557000       13      -2.09226600      -0.99704500       0.02593500 
Al      1.90426000       3.59941000       1.89342000       13      -0.44591600       1.66330300      -0.50552300 
Al      1.75781000       5.68524000       7.42421000       13       1.24178200      -0.51988200      -0.12549100 
Al      0.00073000       3.77036000       3.61610000       13       0.35210200      -0.71840700       1.09231600 
Al      7.44130000       5.59168000       5.55488000       13      -0.07358700      -0.03849100       0.12407200 
Al      1.75049000       3.83555000       5.63481000       13       0.97069400      -1.20878800      -0.85174500 
Al      1.86951000       5.47059000       3.64586000       13       0.47080900       0.66862700       1.23278500 
Al      3.91395000       0.02472000       7.48751000       13      -1.88190800       0.00373800      -0.15491200 
Al      3.76692000       2.02933000       1.88136000       13       0.22175300      -1.45253200      -0.88438200 
Al      5.51133000       0.23528000       1.89254000       13       0.19137700      -1.44463600       0.01704600 
Al      5.57954000       2.08174000       7.47433000       13       0.24076800      -0.76502000       0.08519100 
Al      3.61517000       0.01610000       3.87622000       13       1.47165100      -0.93655900      -0.51186800 
Al      3.84032000       1.88352000       5.68590000       13      -1.80301800      -0.98027600       0.18209300 
Al      5.75222000       7.41999000       5.72102000       13      -1.23053000       0.39669100      -1.16416200 
Al      5.57700000       1.81339000       3.86712000       13       0.11311200      -0.44744400      -1.21159400 
Al      3.69969000       3.86761000       7.33968000       13       0.20266100      -0.27129200       1.16648500 
Al      3.82980000       5.51938000       1.86613000       13      -0.37506000       0.08088600       0.37235500 
Al      5.69223000       3.71228000       1.97650000       13      -0.67646400       0.69984800      -0.97401000 
Al      5.62145000       5.72760000       0.13120000       13       0.85195900      -1.40237100      -0.56418100 
Al      3.68609000       3.53232000       3.78178000       13      -0.02924900       1.97190100      -0.03383700 
Al      3.84399000       5.52125000       5.52313000       13      -0.61621100       1.13994700       0.04743900 
Al      5.54406000       3.63426000       5.42010000       13       1.52220300       1.78642200       1.44906900 
Al      5.69576000       5.62750000       3.68432000       13      -0.64459300       0.51869700      -0.20262000 
32
Lattice="7.5 0.0 0.0 0.0 7.5 0.0 0.0 0.0 7.5" Properties=species:S:1:pos:R:3:Z:I:1:force:R:3 energy=-108.39152165 pbc="T T T"
Al      7.43464000       0.09257000       0.01028000       13       0.67635400      -0.02902500       0.53384500 
Al      7.42572000       1.93132000       1.79197000       13       0.85374200      -0.54335000       0.53648700 
Al      1.98276000       7.21762000       1.88828000       13       0.37027000       2.84520500      -0.41835200 
Al      1.90789000       1.94375000       0.09120000       13       0.22929800      -1.52722500      -1.14946800 
Al      7.38423000       0.09182000       3.56461000       13       1.24781000      -0.86154700       0.86400000 
Al      7.45630000       1.82203000       5.55312000       13       0.87020700       0.49450100       0.09091000 
Al      1.76779000       7.45110000       5.64728000       13       0.54255100       0.39316800      -0.30040500 
Al      1.95229000       1.77131000       3.68256000       13      -1.75976400       0.12932500       0.57743100 
Al      0.05700000       3.65677000       7.40388000       13      -1.00748100       1.24196700       0.54810600 
Al      0.16169000       5.67966000       1.80165000       13      -2.06868500      -1.00230100       0.06587600 
Al      1.90268000       3.59969000       1.89482000       13      -0.41211900       1.64273900      -0.50192400 
Al      1.76045000       5.68221000       7.42211000       13       1.21536900      -0.46625000      -0.09287000 
Al      7.49856000       3.76982000       3.61913000       13       0.36739700      -0.71564700       1.04562600 
Al      7.44139000       5.58800000       5.55387000       13      -0.07513600       0.00489100       0.13829200 
Al      1.75180000       3.83723000       5.63482000       13       0.97126000      -1.22292100      -0.84357100 
Al      1.86876000       5.47258000       3.64501000       13       0.45791100       0.65047900       1.23019700 
Al      3.91499000       0.02696000       7.48613000       13      -1.89590900       0.00254800      -0.15318300 
Al      3.76710000       2.02370000       1.87974000       13       0.19671800      -1.40919300      -0.85417300 
Al      5.51323000       0.23142000       1.88964000       13       0.18656500      -1.43484500       0.05895900 
Al      5.58028000       2.08205000       7.47573000       13       0.22507900      -0.77458500       0.05476300 
Al      3.61737000       0.01551000       3.87974000       13       1.44264100      -0.91585000      -0.55052500 
Al      3.83962000       1.88733000       5.68322000       13      -1.78995700      -1.00153400       0.23296400 
Al      5.75188000       7.41592000       5.72151000       13      -1.18533500       0.45795100      -1.19214000 
Al      5.57616000       1.81354000       3.86430000       13       0.12988200      -0.44452300      -1.18443400 
Al      3.70306000       3.87045000       7.34053000       13       0.18690500      -0.29714600       1.16717100 
Al      3.83152000       5.52344000       1.86539000       13      -0.39020800       0.05488300       0.37345100 
Al      5.69070000       3.71190000       1.97398000       13      -0.67014000       0.69856300      -0.95696200 
Al      5.62288000       5.72858000       0.12960000       13       0.83433800      -1.41706000      -0.56360100 
Al      3.68306000       3.53156000       3.78098000       13       0.02226600       1.99305600      -0.03307600 
Al      3.84163000       5.52620000       5.52510000       13      -0.58743800       1.07561800       0.03789700 
Al      5.54668000       3.63294000       5.42345000       13       1.46085500       1.80593900       1.40801800 
Al      5.69407000       5.62143000       3.68332000       13      -0.62598900       0.57459200      -0.18018300 
32
Lattice="7.5 0.0 0.0 0.0 7.5 0.0 0.0 0.0 7.5" Properties=species:S:1:pos:R:3:Z:I:1:force:R:3 energy=-108.43195462 pbc="T T T"
Al      7.43239000       0.09499000       0.01407000       13       0.71280600      -0.05912500       0.46994000 
Al      7.42305000       1.92979000       1.79251000       13       0.87781200      -0.50916800       0.55112100 
Al      1.98126000       7.21615000       1.88772000       13       0.37669000       2.84893800      -0.42252400 
Al      1.90897000       1.94414000       0.09285000       13       0.22974100      -1.52902600      -1.16176900 
Al      7.38641000       0.09411000       3.56252000       13       1.20883500      -0.90465900       0.89435600 
Al      7.45853000       1.82728000       5.55414000       13       0.83210100       0.42983100       0.09119200 
Al      1.76672000       7.45302000       5.64733000       13       0.51971200       0.37967900      -0.28351400 
Al      1.95090000       1.77176000       3.68423000       13      -1.73449100       0.11306500       0.55975300 
Al      0.05867000       3.65529000       7.40785000       13      -1.00068000       1.26019800       0.51599800 
Al      0.15915000       5.67813000       1.79773000       13      -2.03181500      -0.99150300       0.10360400 
Al      1.90105000       3.60011000       1.89619000       13      -0.38613800       1.62941400      -0.50014500 
Al      1.76319000       5.67913000       7.41999000       13       1.18401500      -0.41951700      -0.06772300 
Al      7.49643000       3.76921000       3.62226000       13       0.38103600      -0.70861800       0.99173500 
Al      7.44147000       5.58431000       5.55287000       13      -0.07144800       0.04504700       0.15187000 
Al      1.75320000       3.83881000       5.63475000       13       0.96922600      -1.23864500      -0.83562200 
Al      1.86805000       5.47464000       3.64427000       13       0.44628500       0.63254900       1.22346200 
Al      3.91586000       0.02921000       7.48473000       13      -1.90695200       0.00398100      -0.15678600 
Al      3.76729000       2.01795000       1.87804000       13       0.17317000      -1.35252400      -0.82066200 
Al      5.51515000       0.22743000       1.88675000       13       0.17068000      -1.42575200       0.10225300 
Al      5.58105000       2.08229000       7.47713000       13       0.20804800      -0.78889500       0.02512000 
Al      3.61971000       0.01483000       3.88320000       13       1.41950900      -0.89159000      -0.58312500 
Al      3.83877000       1.89106000       5.68057000       13      -1.77360800      -1.01737200       0.27705300 
Al      5.75144000       7.41190000       5.72189000       13      -1.14096000       0.51470800      -1.22172100 
Al      5.57533000       1.81366000       3.86137000       13       0.14170700      -0.44505100      -1.14987800 
Al      3.70645000       3.87326000       7.34149000       13       0.17271800      -0.31722600       1.17149600 
Al      3.83320000       5.52751000       1.86469000       13      -0.41127500       0.02845500       0.36660800 
Al      5.68911000       3.71158000       1.97137000       13      -0.66607800       0.69924700      -0.93592400 
Al      5.62439000       5.72943000       0.12795000       13       0.82230900      -1.42725600      -0.56573500 
Al      3.68004000       3.53098000       3.78017000       13       0.06883200       2.01170200      -0.04422900 
Al      3.83922000       5.53124000       5.52707000       13      -0.56259400       1.01109000       0.01464600 
Al      5.54943000       3.63178000       5.42694000       13       1.39353600       1.81723100       1.36661900 
Al      5.69234000       5.61542000       3.68230000       13      -0.61293400       0.61799700      -0.16473700 
32
Lattice="7.5 0.0 0.0 0.0 7.5 0.0 0.0 0.0 7.5" Properties=species:S:1:pos:R:3:Z:I:1:force:R:3 energy=-108.47439353 pbc="T T T"
Al      7.43020000       0.09741000       0.01789000       13       0.74949200      -0.07360500       0.40669900 
Al      7.42045000       1.92821000       1.79309000       13       0.89825500      -0.47536500       0.56591800 
Al      1.97979000       7.21493000       1.88712000       13       0.38689100       2.85416000      -0.42754800 
Al      1.91008000       1.94440000       0.09439000       13       0.22693000      -1.52654300      -1.16898200 
Al      7.38869000       0.09632000       3.56052000       13       1.17517000      -0.95002400       0.92640300 
Al      7.46084000       1.83256000       5.55518000       13       0.79405200       0.36784700       0.08350200 
Al      1.76571000       7.45497000       5.64735000       13       0.50063100       0.36521200      -0.26355800 
Al      1.94936000       1.77222000       3.68595000       13      -1.70388100       0.09355100       0.53608400 
Al      0.06024000       3.65392000       7.41186000       13      -0.98921500       1.27938700       0.48920700 
Al      0.15642000       5.67652000       1.79383000       13      -1.99026100      -0.97915000       0.13836800 
Al      1.89939000       3.60068000       1.89750000       13      -0.35749400       1.60924800      -0.49670600 
Al      1.76604000       5.67601000       7.41787000       13       1.15257400      -0.37515100      -0.04382000 
Al      7.49434000       3.76854000       3.62548000       13       0.39368800      -0.70720900       0.94314900 
Al      7.44155000       5.58063000       5.55189000       13      -0.06921700       0.08330400       0.16649000 
Al      1.75468000       3.84028000       5.63460000       13       0.96524400      -1.24996500      -0.82744200 
Al      1.86739000       5.47675000       3.64365000       13       0.43133100       0.61954800       1.21899900 
Al      3.91657000       0.03146000       7.48333000       13      -1.91605500      -0.00668900      -0.15868100 
Al      3.76751000       2.01208000       1.87627000       13       0.14061800      -1.29948800      -0.76921600 
Al      5.51708000       0.22332000       1.88387000       13       0.15819000      -1.41191700       0.14709500 
Al      5.58183000       2.08246000       7.47854000       13       0.18886500      -0.80180200      -0.00845300 
Al      3.62217000       0.01407000       3.88662000       13       1.38205000      -0.86529800      -0.62149100 
Al      3.83776000       1.89469000       5.67793000       13      -1.75172600      -1.02665300       0.31372700 
Al      5.75089000       7.40793000       5.72216000       13      -1.09199300       0.57222900      -1.25248400 
Al      5.57451000       1.81373000       3.85834000       13       0.15356500      -0.43871200      -1.10570600 
Al      3.70985000       3.87605000       7.34255000       13       0.16300100      -0.34103300       1.16704900 
Al      3.83485000       5.53158000       1.86402000       13      -0.42627200       0.01479900       0.36568800 
Al      5.68746000       3.71132000       1.96868000       13      -0.66605200       0.69563300      -0.92042400 
Al      5.62597000       5.73015000       0.12625000       13       0.79800200      -1.43674300      -0.56464100 
Al      3.67702000       3.53059000       3.77936000       13       0.12012900       2.02400900      -0.04604800 
Al      3.83676000       5.53637000       5.52905000       13      -0.54187400       0.95296400       0.00014700 
Al      5.55230000       3.63078000       5.43054000       13       1.33014000       1.82398200       1.32997400 
Al      5.69054000       5.60947000       3.68127000       13      -0.58914000       0.67296600      -0.14106300 
32
Lattice="7.5 0.0 0.0 0.0 7.5 0.0 0.0 0.0 7.5" Properties=species:S:1:pos:R:3:Z:I:1:force:R:3 energy=-108.51866463 pbc="T T T"
Al      7.42807000       0.09982000       0.02175000       13       0.78149500      -0.09642600       0.34293700 
Al      7.41794000       1.92659000       1.79373000       13       0.92643400      -0.43949400       0.58302100 
Al      1.97836000       7.21398000       1.88648000       13       0.39456000       2.85778000      -0.43682300 
Al      1.91120000       1.94453000       0.09582000       13       0.22745600      -1.51583200      -1.17642800 
Al      7.39108000       0.09844000       3.55860000       13       1.13074400      -0.98522700       0.95768300 
Al      7.46321000       1.83788000       5.55622000       13       0.74689600       0.29806300       0.07100600 
Al      1.76473000       7.45695000       5.64735000       13       0.47951200       0.35431000      -0.24730300 
Al      1.94766000       1.77269000       3.68773000       13      -1.67912300       0.07376000       0.50590600 
Al      0.06173000       3.65266000       7.41592000       13      -0.98206500       1.29068000       0.46447800 
Al      0.15352000       5.67481000       1.78993000       13      -1.95305800      -0.96753000       0.17294800 
Al      1.89770000       3.60139000       1.89878000       13      -0.33002100       1.58687800      -0.49592800 
Al      1.76899000       5.67286000       7.41575000       13       1.12019800      -0.32951500      -0.01103800 
Al      7.49228000       3.76781000       3.62878000       13       0.40896500      -0.70121500       0.88898400 
Al      7.44162000       5.57695000       5.55092000       13      -0.06882000       0.11694100       0.17432200 
Al      1.75625000       3.84163000       5.63438000       13       0.96296800      -1.26634000      -0.81721800 
Al      1.86675000       5.47892000       3.64313000       13       0.41451100       0.60683400       1.20952600 
Al      3.91710000       0.03371000       7.48190000       13      -1.92116200      -0.01499400      -0.15550300 
Al      3.76773000       2.00609000       1.87443000       13       0.11228200      -1.24527900      -0.72804000 
Al      5.51903000       0.21907000       1.88100000       13       0.14029900      -1.39638300       0.18662800 
Al      5.58263000       2.08255000       7.47994000       13       0.16857600      -0.81553100      -0.04618000 
Al      3.62475000       0.01324000       3.88998000       13       1.35373300      -0.84200500      -0.65505300 
Al      3.83659000       1.89823000       5.67533000       13      -1.73520200      -1.03284100       0.34757200 
Al      5.75024000       7.40400000       5.72232000       13      -1.04282500       0.62891300      -1.28346400 
Al      5.57371000       1.81377000       3.85521000       13       0.16212400      -0.43243300      -1.07167500 
Al      3.71327000       3.87881000       7.34371000       13       0.14819600      -0.35998300       1.16144000 
Al      3.83646000       5.53565000       1.86338000       13      -0.43987000       0.00258300       0.36605800 
Al      5.68575000       3.71113000       1.96591000       13      -0.66044000       0.68718300      -0.89913100 
Al      5.62762000       5.73075000       0.12450000       13       0.77433700      -1.45493000      -0.56498400 
Al      3.67401000       3.53037000       3.77855000       13       0.16763900       2.04024200      -0.05234800 
Al      3.83425000       5.54159000       5.53102000       13      -0.51147200       0.89011500      -0.00678300 
Al      5.55529000       3.62995000       5.43427000       13       1.26991100       1.82866900       1.28658900 
Al      5.68870000       5.60357000       3.68023000       13      -0.57534600       0.71399600      -0.12701700 
32
Lattice="7.5 0.0 0.0 0.0 7.5 0.0 0.0 0.0 7.5" Properties=species:S:1:pos:R:3:Z:I:1:force:R:3 energy=-108.56467171 pbc="T T T"
Al      7.42602000       0.10222000       0.02565000       13       0.80570600      -0.12281700       0.27401000 
Al      7.41551000       1.92494000       1.79442000       13       0.95126600      -0.39995100       0.59999000 
Al      1.97696000       7.21327000       1.88580000       13       0.39642800       2.85011600      -0.44421800 
Al      1.91234000       1.94451000       0.09715000       13       0.22353300      -1.50156700      -1.18405000 
Al      7.39356000       0.10047000       3.55676000       13       1.09075700      -1.02596900       0.99043200 
Al      7.46565000       1.84323000       5.55727000       13       0.71095600       0.23737400       0.06584100 
Al      1.76380000       7.45897000       5.64732000       13       0.45744900       0.33568800      -0.22800700 
Al      1.94581000       1.77316000       3.68954000       13      -1.64548400       0.05995500       0.48072200 
Al      0.06313000       3.65152000       7.42002000       13      -0.96746100       1.29652400       0.43514500 
Al      0.15045000       5.67303000       1.78606000       13      -1.90912500      -0.96054600       0.20113600 
Al      1.89599000       3.60224000       1.90001000       13      -0.30331000       1.56065100      -0.50022300 
Al      1.77204000       5.66968000       7.41363000       13       1.08257600      -0.27955900       0.00902600 
Al      7.49025000       3.76702000       3.63216000       13       0.42118100      -0.70529300       0.83213200 
Al      7.44168000       5.57329000       5.54996000       13      -0.06228600       0.15495900       0.18600600 
Al      1.75791000       3.84287000       5.63409000       13       0.95743800      -1.27520900      -0.79754600 
Al      1.86616000       5.48114000       3.64272000       13       0.40323200       0.59673800       1.20107000 
Al      3.91745000       0.03595000       7.48047000       13      -1.92352900      -0.02873600      -0.15753900 
Al      3.76796000       1.99998000       1.87253000       13       0.08546300      -1.19859100      -0.68169700 
Al      5.52098000       0.21471000       1.87814000       13       0.13283800      -1.38674900       0.23089300 
Al      5.58345000       2.08258000       7.48135000       13       0.15122400      -0.82534400      -0.07787400 
Al      3.62746000       0.01233000       3.89328000       13       1.31959800      -0.81609000      -0.69139700 
Al      3.83526000       1.90168000       5.67276000       13      -1.70985100      -1.05224700       0.38816600 
Al      5.74951000       7.40013000       5.72236000       13      -0.99027300       0.68859300      -1.31117800 
Al      5.57292000       1.81377000       3.85199000       13       0.17394200      -0.42720800      -1.03347300 
Al      3.71670000       3.88153000       7.34498000       13       0.13286300      -0.38662300       1.15485100 
Al      3.83803000       5.53972000       1.86277000       13      -0.45149700      -0.00732900       0.36429700 
Al      5.68398000       3.71099000       1.96306000       13      -0.64808400       0.67911400      -0.87589300 
Al      5.62935000       5.73121000       0.12270000       13       0.75949000      -1.47081700      -0.56288800 
Al      3.67101000       3.53033000       3.77773000       13       0.20801100       2.05076300      -0.06460200 
Al      3.83169000       5.54689000       5.53300000       13      -0.49088800       0.81957300      -0.01125500 
Al      5.55840000       3.62928000       5.43811000       13       1.21071100       1.82785000       1.25333400 
Al      5.68680000       5.59774000       3.67918000       13      -0.56047500       0.75359700      -0.10028200 
32
Lattice="7.5 0.0 0.0 0.0 7.5 0.0 0.0 0.0 7.5" Properties=species:S:1:pos:R:3:Z:I:1:force:R:3 energy=-108.612156 pbc="T T T"
Al      7.42404000       0.10461000       0.02957000       13       0.83086500      -0.14384900       0.21236800 
Al      7.41316000       1.92324000       1.79516000       13       0.96869000      -0.35907900       0.61633900 
Al      1.97560000       7.21282000       1.88509000       13       0.39931700       2.83911300      -0.44611500 
Al      1.91351000       1.94437000       0.09838000       13       0.21625200      -1.48917700      -1.18727500 
Al      7.39615000       0.10241000       3.55502000       13       1.05077100      -1.06265400       1.01959100 
Al      7.46815000       1.84860000       5.55832000       13       0.66024600       0.16976500       0.05978200 
Al      1.76291000       7.46102000       5.64728000       13       0.43597600       0.32228400      -0.20904600 
Al      1.94382000       1.77365000       3.69140000       13      -1.61520300       0.04558700       0.46028000 
Al      0.06444000       3.65050000       7.42415000       13      -0.96283800       1.30776800       0.40885300 
Al      0.14720000       5.67115000       1.78220000       13      -1.85253700      -0.94794600       0.24257100 
Al      1.89424000       3.60324000       1.90119000       13      -0.27299600       1.53716900      -0.50072800 
Al      1.77519000       5.66648000       7.41150000       13       1.03717600      -0.22803400       0.04412300 
Al      7.48826000       3.76616000       3.63561000       13       0.43736300      -0.70942700       0.77755600 
Al      7.44173000       5.56964000       5.54902000       13      -0.05872100       0.18850800       0.19888200 
Al      1.75965000       3.84400000       5.63372000       13       0.95868600      -1.28512700      -0.78493500 
Al      1.86560000       5.48342000       3.64242000       13       0.38562100       0.58865200       1.19053800 
Al      3.91764000       0.03820000       7.47902000       13      -1.92386300      -0.03820900      -0.15175500 
Al      3.76821000       1.99378000       1.87057000       13       0.05611500      -1.14791300      -0.63060800 
Al      5.52295000       0.21021000       1.87531000       13       0.11830600      -1.37766500       0.26751100 
Al      5.58428000       2.08252000       7.48274000       13       0.13473800      -0.83775600      -0.10753000 
Al      3.63028000       0.01135000       3.89652000       13       1.28690400      -0.78691700      -0.72510200 
Al      3.83379000       1.90503000       5.67022000       13      -1.68420900      -1.05739300       0.42112200 
Al      5.74868000       7.39633000       5.72229000       13      -0.94288000       0.73678600      -1.33100300 
Al      5.57214000       1.81373000       3.84867000       13       0.18571300      -0.41302900      -0.98565300 
Al      3.72014000       3.88422000       7.34635000       13       0.11169400      -0.41157900       1.14543500 
Al      3.83956000       5.54379000       1.86220000       13      -0.46348100      -0.02229000       0.37151700 
Al      5.68216000       3.71092000       1.96012000       13      -0.63934300       0.67137600      -0.85315500 
Al      5.63114000       5.73155000       0.12085000       13       0.74006800      -1.47955900      -0.55761200 
Al      3.66803000       3.53048000       3.77691000       13       0.25957600       2.05548800      -0.07361400 
Al      3.82909000       5.55226000       5.53497000       13      -0.46986200       0.75501600      -0.01701500 
Al      5.56161000       3.62877000       5.44206000       13       1.14511900       1.82867800       1.21461400 
Al      5.68485000       5.59198000       3.67811000       13      -0.54730200       0.80477000      -0.07503100 
32
Lattice="7.5 0.0 0.0 0.0 7.5 0.0 0.0 0.0 7.5" Properties=species:S:1:pos:R:3:Z:I:1:force:R:3 energy=-108.66085619 pbc="T T T"
Al      7.42213000       0.10698000       0.03350000       13       0.86566400      -0.16287200       0.14534200 
Al      7.41090000       1.92152000       1.79596000       13       0.98718700      -0.31687400       0.62880500 
Al      1.97427000       7.21263000       1.88433000       13       0.39426100       2.82500600      -0.45312300 
Al      1.91469000       1.94409000       0.09950000       13       0.20801900      -1.47327000      -1.18663900 
Al      7.39883000       0.10426000       3.55336000       13       1.01241100      -1.10073400       1.04788800 
Al      7.47072000       1.85398000       5.55938000       13       0.62464600       0.11192000       0.05800600 
Al      1.76206000       7.46309000       5.64722000       13       0.41932200       0.30344900      -0.19082900 
Al      1.94168000       1.77413000       3.69330000       13      -1.57660300       0.03118600       0.43160700 
Al      0.06567000       3.64959000       7.42833000       13      -0.95426200       1.31523400       0.37205900 
Al      0.14379000       5.66919000       1.77836000       13      -1.79999300      -0.92813900       0.28006000 
Al      1.89247000       3.60437000       1.90233000       13      -0.24845900       1.50948200      -0.49892800 
Al      1.77843000       5.66325000       7.40938000       13       1.00239000      -0.18278300       0.06963000 
Al      7.48632000       3.76524000       3.63914000       13       0.45278000      -0.70225900       0.72133200 
Al      7.44179000       5.56600000       5.54810000       13      -0.05247200       0.23177800       0.20506300 
Al      1.76148000       3.84501000       5.63329000       13       0.95810600      -1.29446900      -0.76811300 
Al      1.86508000       5.48575000       3.64222000       13       0.37005900       0.57172900       1.18034700 
Al      3.91765000       0.04044000       7.47755000       13      -1.91856500      -0.05624500      -0.15293400 
Al      3.76845000       1.98747000       1.86855000       13       0.02645400      -1.09059200      -0.58730400 
Al      5.52493000       0.20560000       1.87250000       13       0.11101400      -1.35549200       0.29938600 
Al      5.58512000       2.08240000       7.48413000       13       0.11602100      -0.84935300      -0.14020200 
Al      3.63322000       0.01029000       3.89969000       13       1.24503600      -0.75361100      -0.76716000 
Al      3.83216000       1.90829000       5.66772000       13      -1.65449900      -1.06224900       0.44838600 
Al      5.74777000       7.39258000       5.72210000       13      -0.88966500       0.79009400      -1.35233100 
Al      5.57139000       1.81365000       3.84527000       13       0.19500500      -0.40090800      -0.93947200 
Al      3.72359000       3.88687000       7.34782000       13       0.09935100      -0.43978600       1.13487900 
Al      3.84105000       5.54786000       1.86166000       13      -0.48063900      -0.03979500       0.37374500 
Al      5.68027000       3.71091000       1.95712000       13      -0.63224100       0.65998400      -0.83301900 
Al      5.63299000       5.73175000       0.11895000       13       0.71364800      -1.48866700      -0.56067400 
Al      3.66508000       3.53081000       3.77608000       13       0.31466600       2.05123000      -0.08208900 
Al      3.82645000       5.55769000       5.53694000       13      -0.44610700       0.69438700      -0.02542300 