32
Lattice="7.92 0.0 0.0 0.0 7.92 0.0 0.0 0.0 7.92" Properties=species:S:1:pos:R:3:Z:I:1:force:R:3 energy=-116.97528226 pbc="T T T"
Al      0.04967000       7.90617000       0.06477000       13      -0.28255200       0.40069700      -0.03570200 
Al      0.15230000       1.95658000       1.95659000       13      -0.56611200      -0.08546500      -0.46880300 
Al      2.13792000       0.07674000       1.93305000       13      -0.91691100      -1.01085600      -0.07610400 
Al      2.03426000       1.93366000       7.87343000       13      -0.35681500       0.55649700       0.41522800 
Al      0.02420000       7.72867000       3.78751000       13      -0.08619100       0.96218600       0.72014200 
Al      7.86377000       1.87872000       5.97142000       13       0.45596300       0.35546200      -0.22570000 
Al      1.88920000       7.77877000       6.08656000       13       0.85271000       1.52569300      -1.49893000 
Al      1.95742000       1.98675000       3.81753000       13       0.14562600      -0.44717400       1.04317700 
Al      7.86556000       3.97109000       7.80490000       13       0.28160400      -0.16081100       0.26592500 
Al      0.03757000       5.87994000       1.95083000       13      -0.43777000       0.07343200      -0.26952200 
Al      1.91983000       4.14523000       1.97865000       13       0.93666700      -0.73095800      -0.63051300 
Al      1.87423000       6.02225000       7.79792000       13       0.59885500      -1.30219300       1.21856600 
Al      0.02089000       3.76403000       3.82718000       13      -0.46393700       0.86200700       0.72331900 
Al      0.01969000       6.01385000       5.95714000       13      -0.92013900      -0.57518200      -0.54554800 
Al      1.96844000       3.92989000       5.79215000       13      -0.83488000      -0.10823900       0.78053700 
Al      1.90802000       5.89394000       4.06571000       13       0.52162700       0.28625600      -0.61940800 
Al      3.99436000       7.74370000       0.03241000       13      -0.17769600       1.09653400      -0.37761800 
Al      3.92149000       1.91231000       2.04117000       13       0.55374400       0.89602700      -0.53281200 
Al      6.04310000       0.09313000       1.89608000       13      -0.36862000      -0.24365100       0.64845600 
Al      5.90908000       2.01313000       0.09755000       13      -0.12525100      -0.11194700      -0.85620000 
Al      3.91208000       7.90143000       3.84937000       13       0.37244500      -0.20663100       1.11923000 
Al      3.84038000       2.06125000       6.07562000       13       0.66840700      -1.01329400      -0.78942200 
Al      5.93280000       0.10035000       5.97616000       13      -0.33093300      -0.48194500      -0.34244100 
Al      5.87549000       2.01614000       4.11380000       13       0.00208300      -0.43623700      -0.53380400 
Al      3.95642000       4.11646000       7.65803000       13      -0.12291000      -0.81205100       2.02294300 
Al      4.04219000       5.94870000       1.95010000       13      -0.34165300      -0.59053800       0.03857700 
Al      5.94918000       3.76124000       1.95803000       13      -0.22256200       0.94620000       0.16445100 
Al      5.97571000       6.08779000       7.86817000       13       0.30255900      -0.88840500       0.29773900 
Al      3.87915000       3.90982000       4.05154000       13       0.48597900       0.22818200      -0.85930100 
Al      3.99288000       5.88702000       5.99133000       13      -0.13048800       1.24069500      -1.33984000 
Al      5.94971000       4.05686000       5.86979000       13       0.36842700      -0.22702600       0.02703500 
Al      5.90723000       5.90079000       3.81365000       13       0.15629000       0.01384900       0.50390700 
32
Lattice="7.92 0.0 0.0 0.0 7.92 0.0 0.0 0.0 7.92" Properties=species:S:1:pos:R:3:Z:I:1:force:R:3 energy=-116.95481124 pbc="T T T"
Al      0.05003000       7.90844000       0.06310000       13      -0.28486100       0.38010400      -0.02263400 
Al      0.15570000       1.95479000       1.95661000       13      -0.59934000      -0.08279800      -0.47612000 
Al      2.13483000       0.08062000       1.93496000       13      -0.89229400      -1.05371000      -0.11062800 
Al      2.03397000       1.93593000       7.87491000       13      -0.34669100       0.55247400       0.40881700 
Al      0.02551000       7.72719000       3.78672000       13      -0.11322000       0.96949600       0.70793700 
Al      7.86663000       1.88158000       5.97003000       13       0.42750100       0.32980600      -0.22649300 
Al      1.89063000       7.78032000       6.08676000       13       0.84023400       1.53296400      -1.49587500 
Al      1.95413000       1.98465000       3.81907000       13       0.17432600      -0.43873900       1.05486400 
Al      7.86311000       3.97041000       7.80448000       13       0.29783800      -0.15368400       0.26939100 
Al      0.03555000       5.87325000       1.95124000       13      -0.43194100       0.11432400      -0.28192200 
Al      1.91946000       4.14379000       1.98014000       13       0.95777100      -0.71806600      -0.63451000 
Al      1.87751000       6.02406000       7.79772000       13       0.55793000      -1.30673700       1.22785100 
Al      0.02273000       3.76191000       3.82530000       13      -0.47501000       0.87516800       0.74255300 
Al      0.02166000       6.01282000       5.95697000       13      -0.92326400      -0.57332200      -0.53187700 
Al      1.97109000       3.92829000       5.79155000       13      -0.85951700      -0.08516500       0.77397700 
Al      1.90602000       5.89902000       4.06873000       13       0.54692500       0.23400900      -0.64097400 
Al      3.99483000       7.74206000       0.02618000       13      -0.19900500       1.12777000      -0.33978100 
Al      3.92141000       1.90817000       2.04427000       13       0.56296700       0.92538600      -0.54910800 
Al      6.03926000       0.09112000       1.89691000       13      -0.33934700      -0.24631500       0.65401900 
Al      5.91263000       2.00893000       0.10032000       13      -0.14544100      -0.08526900      -0.86740100 
Al      3.90872000       7.90010000       3.85022000       13       0.38489100      -0.21148300       1.12807600 
Al      3.83881000       2.06359000       6.07547000       13       0.69129300      -1.02876900      -0.78093800 
Al      5.93300000       0.09749000       5.97589000       13      -0.30805500      -0.44137200      -0.36061400 
Al      5.87347000       2.01903000       4.11136000       13       0.01443000      -0.45840400      -0.51145900 
Al      3.95136000       4.11980000       7.65631000       13      -0.09570400      -0.83875000       2.04603200 
Al      4.04347000       5.95092000       1.94648000       13      -0.35546700      -0.59948200       0.05822100 
Al      5.95068000       3.76239000       1.95928000       13      -0.24109000       0.93212600       0.14352800 
Al      5.97683000       6.08882000       7.86776000       13       0.30800300      -0.89912900       0.29827400 
Al      3.88019000       3.91042000       4.05281000       13       0.47669000       0.23850600      -0.87508600 
Al      3.99185000       5.88812000       5.99241000       13      -0.11330700       1.23971000      -1.37411700 
Al      5.95037000       4.05623000       5.87113000       13       0.36024700      -0.21843300       0.02373500 
Al      5.90878000       5.90217000       3.81305000       13       0.14000300       0.00130300       0.51198600 
32
Lattice="7.92 0.0 0.0 0.0 7.92 0.0 0.0 0.0 7.92" Properties=species:S:1:pos:R:3:Z:I:1:force:R:3 energy=-116.93459996 pbc="T T T"
Al      0.05036000       7.91075000       0.06143000       13      -0.28843600       0.36032400      -0.00938200 
Al      0.15905000       1.95299000       1.95659000       13      -0.63653000      -0.07338700      -0.48045300 
Al      2.13166000       0.08441000       1.93686000       13      -0.87318400      -1.08944600      -0.13987500 
Al      2.03366000       1.93825000       7.87643000       13      -0.33932900       0.54369500       0.40489800 
Al      0.02680000       7.72579000       3.78600000       13      -0.13758300       0.97508400       0.69667300 
Al      7.86952000       1.88446000       5.96862000       13       0.39961200       0.30695600      -0.22910900 
Al      1.89214000       7.78201000       6.08681000       13       0.82484300       1.53699300      -1.49128200 
Al      1.95085000       1.98251000       3.82071000       13       0.20005500      -0.42577900       1.06695600 
Al      7.86069000       3.96971000       7.80409000       13       0.31304500      -0.14970900       0.26842000 
Al      0.03349000       5.86658000       1.95162000       13      -0.42093500       0.14769900      -0.29190100 
Al      1.91917000       4.14229000       1.98157000       13       0.97872400      -0.70457100      -0.63394900 
Al      1.88084000       6.02574000       7.79764000       13       0.51964100      -1.30295300       1.24132500 
Al      0.02453000       3.75986000       3.82349000       13      -0.49182400       0.89269500       0.77219800 
Al      0.02356000       6.01174000       5.95676000       13      -0.92164500      -0.57134900      -0.51928000 
Al      1.97367000       3.92669000       5.79102000       13      -0.89060800      -0.06191500       0.76324900 
Al      1.90406000       5.90413000       4.07170000       13       0.57456400       0.19021900      -0.66094200 
Al      3.99527000       7.74053000       0.01991000       13      -0.21132100       1.15699100      -0.29744400 
Al      3.92138000       1.90411000       2.04732000       13       0.57195600       0.95622700      -0.56632300 
Al      6.03539000       0.08909000       1.89781000       13      -0.29282900      -0.23901100       0.65439900 
Al      5.91616000       2.00472000       0.10300000       13      -0.16339600      -0.06807300      -0.87194900 
Al      3.90539000       7.89875000       3.85118000       13       0.39938300      -0.21502500       1.13507700 
Al      3.83729000       2.06584000       6.07525000       13       0.71482000      -1.04506200      -0.76872400 
Al      5.93317000       0.09459000       5.97559000       13      -0.29274900      -0.40999400      -0.38159500 
Al      5.87146000       2.02188000       4.10887000       13       0.02537400      -0.47753100      -0.48695600 
Al      3.94629000       4.12306000       7.65478000       13      -0.06155900      -0.86338900       2.07234500 
Al      4.04472000       5.95308000       1.94287000       13      -0.36178700      -0.60236000       0.07933000 
Al      5.95217000       3.76361000       1.96054000       13      -0.25742900       0.91796600       0.12574400 
Al      5.97797000       6.08978000       7.86737000       13       0.31131200      -0.90999200       0.29522300 
Al      3.88127000       3.91104000       4.05401000       13       0.46436000       0.25224600      -0.88932700 
Al      3.99082000       5.88933000       5.99336000       13      -0.09828300       1.23387400      -1.40348300 
Al      5.95107000       4.05557000       5.87247000       13       0.35001800      -0.21102200       0.01962900 
Al      5.91033000       5.90355000       3.81250000       13       0.12337800      -0.00756400       0.52297100 
32
Lattice="7.92 0.0 0.0 0.0 7.92 0.0 0.0 0.0 7.92" Properties=species:S:1:pos:R:3:Z:I:1:force:R:3 energy=-116.9149133 pbc="T T T"
Al      0.05066000       7.91308000       0.05976000       13      -0.28831500       0.34155700       0.00127900 
Al      0.16234000       1.95119000       1.95653000       13      -0.67250400      -0.07060000      -0.48233600 
Al      2.12841000       0.08809000       1.93874000       13      -0.85173800      -1.13051500      -0.16977200 
Al      2.03331000       1.94061000       7.87798000       13      -0.32153200       0.54000200       0.39774200 
Al      0.02809000       7.72448000       3.78533000       13      -0.16354800       0.98304500       0.68732800 
Al      7.87245000       1.88738000       5.96718000       13       0.37017100       0.28307600      -0.22782500 
Al      1.89372000       7.78384000       6.08674000       13       0.80857000       1.53812100      -1.48323000 
Al      1.94759000       1.98034000       3.82244000       13       0.22470700      -0.41995900       1.08209700 
Al      7.85829000       3.96899000       7.80372000       13       0.33117100      -0.14222100       0.26901100 
Al      0.03140000       5.85991000       1.95198000       13      -0.41681700       0.18191100      -0.29459500 
Al      1.91898000       4.14072000       1.98295000       13       0.99997100      -0.69453900      -0.63507100 
Al      1.88422000       6.02731000       7.79766000       13       0.48485400      -1.30101600       1.24576200 
Al      0.02628000       3.75790000       3.82175000       13      -0.49925800       0.90252600       0.78775000 
Al      0.02537000       6.01062000       5.95650000       13      -0.92547100      -0.56625500      -0.50489900 
Al      1.97617000       3.92508000       5.79055000       13      -0.91683000      -0.03834800       0.75192600 
Al      1.90216000       5.90925000       4.07460000       13       0.59774100       0.14578500      -0.68460600 
Al      3.99570000       7.73911000       0.01362000       13      -0.22338300       1.18250400      -0.25802200 
Al      3.92139000       1.90014000       2.05032000       13       0.58486000       0.97999100      -0.57971700 
Al      6.03150000       0.08703000       1.89876000       13      -0.26649000      -0.23787400       0.65684300 
Al      5.91968000       2.00050000       0.10561000       13      -0.18154100      -0.04657600      -0.87597900 
Al      3.90209000       7.89738000       3.85224000       13       0.41179300      -0.21589400       1.13897900 
Al      3.83585000       2.06799000       6.07495000       13       0.73724200      -1.06012100      -0.76142500 
Al      5.93331000       0.09165000       5.97525000       13      -0.27577300      -0.37548900      -0.40712000 
Al      5.86945000       2.02469000       4.10633000       13       0.03312900      -0.50236900      -0.46137200 
Al      3.94121000       4.12624000       7.65343000       13      -0.02773600      -0.89341200       2.10075600 
Al      4.04593000       5.95519000       1.93927000       13      -0.37548500      -0.60748600       0.09519300 
Al      5.95363000       3.76492000       1.96181000       13      -0.27036500       0.90023200       0.10676800 
Al      5.97914000       6.09065000       7.86701000       13       0.31274900      -0.91967700       0.29339200 
Al      3.88239000       3.91167000       4.05512000       13       0.45490500       0.26247300      -0.90804700 
Al      3.98977000       5.89065000       5.99419000       13      -0.08304100       1.22685300      -1.43336700 
Al      5.95180000       4.05490000       5.87381000       13       0.33936700      -0.20628400       0.01776600 
Al      5.91190000       5.90493000       3.81199000       13       0.10554500      -0.01736700       0.53397900 
32
Lattice="7.92 0.0 0.0 0.0 7.92 0.0 0.0 0.0 7.92" Properties=species:S:1:pos:R:3:Z:I:1:force:R:3 energy=-116.89597427 pbc="T T T"
Al      0.05094000       7.91545000       0.05809000       13      -0.28728300       0.31848500       0.00891000 
Al      0.16557000       1.94938000       1.95643000       13      -0.70342800      -0.06323600      -0.48564500 
Al      2.12508000       0.09168000       1.94061000       13      -0.83153300      -1.16382900      -0.19728100 
Al      2.03294000       1.94303000       7.87957000       13      -0.30901400       0.53444400       0.39035600 
Al      0.02936000       7.72326000       3.78473000       13      -0.18615500       0.98955600       0.67650000 
Al      7.87541000       1.89032000       5.96573000       13       0.34097400       0.25982900      -0.22553200 
Al      1.89537000       7.78580000       6.08653000       13       0.79391800       1.53776200      -1.47381700 
Al      1.94435000       1.97812000       3.82427000       13       0.25600400      -0.41081300       1.08779800 
Al      7.85593000       3.96827000       7.80337000       13       0.34678600      -0.13578100       0.27203000 
Al      0.02926000       5.85327000       1.95231000       13      -0.40923100       0.22270800      -0.30530200 
Al      1.91887000       4.13909000       1.98427000       13       1.02087100      -0.67876500      -0.63790200 
Al      1.88764000       6.02877000       7.79780000       13       0.44627200      -1.30007700       1.25290300 
Al      0.02799000       3.75601000       3.82008000       13      -0.50797200       0.90993600       0.80226500 
Al      0.02710000       6.00944000       5.95620000       13      -0.93009200      -0.56042800      -0.48962800 
Al      1.97859000       3.92347000       5.79016000       13      -0.94421000      -0.01734100       0.73764800 
Al      1.90032000       5.91439000       4.07745000       13       0.61650300       0.10135800      -0.69868300 
Al      3.99611000       7.73778000       0.00731000       13      -0.23375700       1.21272800      -0.21618300 
Al      3.92146000       1.89626000       2.05327000       13       0.59519900       1.00151100      -0.60052100 
Al      6.02758000       0.08496000       1.89977000       13      -0.24655400      -0.24162200       0.65895400 
Al      5.92319000       1.99629000       0.10813000       13      -0.20078500      -0.02267300      -0.88726000 
Al      3.89883000       7.89598000       3.85341000       13       0.42250800      -0.21556400       1.14046800 
Al      3.83446000       2.07004000       6.07459000       13       0.75789500      -1.07581600      -0.75368900 
Al      5.93343000       0.08867000       5.97487000       13      -0.26079600      -0.34004900      -0.42633700 
Al      5.86744000       2.02745000       4.10375000       13       0.04666400      -0.52071100      -0.43503800 
Al      3.93614000       4.12935000       7.65227000       13       0.00294700      -0.91603300       2.11515300 
Al      4.04711000       5.95724000       1.93568000       13      -0.38267500      -0.61424900       0.11288600 
Al      5.95507000       3.76631000       1.96309000       13      -0.28944600       0.88258700       0.08427100 
Al      5.98034000       6.09144000       7.86668000       13       0.31776500      -0.92815000       0.29246700 
Al      3.88355000       3.91234000       4.05616000       13       0.44312100       0.27294300      -0.92251000 
Al      3.98872000       5.89208000       5.99490000       13      -0.06491800       1.21711200      -1.46497300 
Al      5.95257000       4.05420000       5.87515000       13       0.32690400      -0.19992600       0.01539400 
Al      5.91348000       5.90631000       3.81153000       13       0.08733300      -0.02294600       0.53859400 
32
Lattice="7.92 0.0 0.0 0.0 7.92 0.0 0.0 0.0 7.92" Properties=species:S:1:pos:R:3:Z:I:1:force:R:3 energy=-116.8778668 pbc="T T T"
Al      0.05119000       7.91784000       0.05642000       13      -0.28454800       0.29129500       0.01916200 
Al      0.16874000       1.94756000       1.95628000       13      -0.73294200      -0.05815700      -0.48838600 
Al      2.12168000       0.09516000       1.94246000       13      -0.80504900      -1.19510200      -0.22683800 
Al      2.03254000       1.94549000       7.88119000       13      -0.29592300       0.53419500       0.38331700 
Al      0.03062000       7.72212000       3.78419000       13      -0.21268900       0.99709300       0.66548700 
Al      7.87840000       1.89329000       5.96425000       13       0.31291600       0.24092600      -0.22864300 
Al      1.89709000       7.78790000       6.08619000       13       0.77559700       1.53559100      -1.46788800 
Al      1.94114000       1.97587000       3.82620000       13       0.27836800      -0.40206000       1.09764700 
Al      7.85359000       3.96753000       7.80305000       13       0.35949900      -0.13050500       0.27584500 
Al      0.02709000       5.84664000       1.95261000       13      -0.39477300       0.25546800      -0.30565500 
Al      1.91885000       4.13741000       1.98553000       13       1.04178400      -0.66598500      -0.63625300 
Al      1.89110000       6.03010000       7.79805000       13       0.40953200      -1.29114300       1.25811000 
Al      0.02966000       3.75421000       3.81848000       13      -0.52368500       0.92046700       0.82058000 
Al      0.02875000       6.00821000       5.95585000       13      -0.92540100      -0.55653300      -0.47538600 
Al      1.98092000       3.92186000       5.78983000       13      -0.96994700       0.00788700       0.73106900 
Al      1.89852000       5.91953000       4.08023000       13       0.63602300       0.05195400      -0.71758700 
Al      3.99649000       7.73657000       0.00098000       13      -0.24414000       1.24067600      -0.18213600 
Al      3.92159000       1.89247000       2.05616000       13       0.59810000       1.02280500      -0.60939000 
Al      6.02363000       0.08286000       1.90084000       13      -0.22669200      -0.24511100       0.66080200 
Al      5.92667000       1.99207000       0.11058000       13      -0.21763000       0.00002600      -0.89184000 
Al      3.89561000       7.89457000       3.85467000       13       0.44310500      -0.21294000       1.14555200 
Al      3.83315000       2.07200000       6.07417000       13       0.77812000      -1.08817400      -0.74157500 
Al      5.93353000       0.08567000       5.97446000       13      -0.24758600      -0.30659000      -0.44763600 
Al      5.86543000       2.03016000       4.10114000       13       0.06048200      -0.54550100      -0.41103000 
Al      3.93106000       4.13237000       7.65129000       13       0.03402600      -0.94093500       2.12771600 
Al      4.04826000       5.95924000       1.93209000       13      -0.39158600      -0.61905400       0.13082500 
Al      5.95648000       3.76777000       1.96438000       13      -0.30691700       0.86269200       0.06591100 
Al      5.98157000       6.09214000       7.86637000       13       0.31930200      -0.93675100       0.28980900 
Al      3.88475000       3.91302000       4.05711000       13       0.43201000       0.28265400      -0.93410300 
Al      3.98767000       5.89362000       5.99547000       13      -0.05129900       1.20409400      -1.49503000 
Al      5.95336000       4.05349000       5.87649000       13       0.31413400      -0.19664200       0.01244300 
Al      5.91506000       5.90768000       3.81112000       13       0.07327000      -0.03280300       0.54560100 
32
Lattice="7.92 0.0 0.0 0.0 7.92 0.0 0.0 0.0 7.92" Properties=species:S:1:pos:R:3:Z:I:1:force:R:3 energy=-116.86067306 pbc="T T T"
Al      0.05142000       0.00026000       0.05476000       13      -0.28862700       0.26377700       0.03295000 
Al      0.17184000       1.94574000       1.95609000       13      -0.76862200      -0.05002500      -0.49585800 
Al      2.11821000       0.09854000       1.94429000       13      -0.78115800      -1.23418300      -0.25002400 
Al      2.03211000       1.94800000       7.88285000       13      -0.28484700       0.51895800       0.37107300 
Al      0.03185000       7.72107000       3.78371000       13      -0.23863000       1.00067400       0.65832600 
Al      7.88142000       1.89627000       5.96275000       13       0.28534900       0.21970200      -0.23006700 
Al      1.89889000       7.79014000       6.08572000       13       0.75639800       1.53066000      -1.45390300 
Al      1.93794000       1.97358000       3.82822000       13       0.30811300      -0.39178400       1.10672100 
Al      7.85129000       3.96678000       7.80275000       13       0.37681800      -0.12745900       0.27729800 
Al      0.02489000       5.84004000       1.95289000       13      -0.38044700       0.29233700      -0.31258800 
Al      1.91893000       4.13566000       1.98674000       13       1.05956900      -0.64946600      -0.63508600 
Al      1.89459000       6.03132000       7.79841000       13       0.37468100      -1.28385900       1.25898700 
Al      0.03127000       3.75249000       3.81695000       13      -0.53482800       0.92778200       0.83401800 
Al      0.03032000       6.00693000       5.95546000       13      -0.92277700      -0.54931300      -0.45679700 
Al      1.98316000       3.92024000       5.78957000       13      -0.99540600       0.03041100       0.71644400 
Al      1.89679000       5.92468000       4.08295000       13       0.65951000       0.00832100      -0.73620100 
Al      3.99686000       7.73547000       7.91463000       13      -0.25242900       1.26510300      -0.14448500 
Al      3.92176000       1.88877000       2.05900000       13       0.59933000       1.04191100      -0.61978400 
Al      6.01967000       0.08075000       1.90197000       13      -0.20716000      -0.24846100       0.66231400 
Al      5.93014000       1.98785000       0.11295000       13      -0.23946800       0.02527400      -0.89773400 
Al      3.89243000       7.89314000       3.85604000       13       0.45525900      -0.21487700       1.14486900 
Al      3.83190000       2.07387000       6.07367000       13       0.79525600      -1.09845600      -0.73033900 
Al      5.93360000       0.08264000       5.97401000       13      -0.23251400      -0.27209900      -0.46815100 
Al      5.86343000       2.03283000       4.09849000       13       0.07326200      -0.56193000      -0.38118200 
Al      3.92599000       4.13530000       7.65051000       13       0.06007600      -0.96476200       2.13460300 
Al      4.04937000       5.96119000       1.92852000       13      -0.40283600      -0.62184600       0.14401000 
Al      5.95787000       3.76932000       1.96567000       13      -0.32698800       0.84410800       0.04890500 
Al      5.98283000       6.09276000       7.86609000       13       0.32043600      -0.94311600       0.28587000 
Al      3.88599000       3.91374000       4.05798000       13       0.41802000       0.28545100      -0.94836500 
Al      3.98660000       5.89526000       5.99591000       13      -0.03260500       1.18809900      -1.52136200 
Al      5.95417000       4.05276000       5.87784000       13       0.29802300      -0.18985200       0.00816500 
Al      5.91665000       5.90906000       3.81076000       13       0.05815000      -0.04073900       0.55390300 
32
Lattice="7.92 0.0 0.0 0.0 7.92 0.0 0.0 0.0 7.92" Properties=species:S:1:pos:R:3:Z:I:1:force:R:3 energy=-116.84437324 pbc="T T T"
Al      0.05162000       0.00270000       0.05309000       13      -0.28463400       0.23571900       0.03930500 
Al      0.17487000       1.94391000       1.95585000       13      -0.80500400      -0.03819900      -0.49748000 
Al      2.11466000       0.10180000       1.94610000       13      -0.75263800      -1.27315500      -0.27014500 
Al      2.03166000       1.95056000       7.88454000       13      -0.27020500       0.50944100       0.36786500 
Al      0.03307000       7.72012000       3.78329000       13      -0.26615400       1.01033200       0.65052300 
Al      7.88446000       1.89928000       5.96124000       13       0.25750400       0.19603600      -0.23023400 
Al      1.90075000       7.79251000       6.08512000       13       0.73321900       1.52269000      -1.43956200 
Al      1.93478000       1.97126000       3.83035000       13       0.34473800      -0.37736100       1.10883000 
Al      7.84902000       3.96601000       7.80248000       13       0.38903400      -0.12308100       0.27880000 
Al      0.02265000       5.83346000       1.95313000       13      -0.36983400       0.32534300      -0.31485600 
Al      1.91910000       4.13385000       1.98788000       13       1.07773500      -0.63834900      -0.63184400 
Al      1.89812000       6.03243000       7.79889000       13       0.33895800      -1.27105100       1.25895900 
Al      0.03284000       3.75085000       3.81550000       13      -0.54244100       0.93606500       0.84911300 
Al      0.03180000       6.00560000       5.95503000       13      -0.91918800      -0.54137100      -0.43753100 
Al      1.98532000       3.91863000       5.78937000       13      -1.01569800       0.05134000       0.70375300 
Al      1.89511000       5.92983000       4.08560000       13       0.68150500      -0.03303200      -0.75205800 
Al      3.99720000       7.73448000       7.90827000       13      -0.26034700       1.29333000      -0.10184500 
Al      3.92199000       1.88516000       2.06179000       13       0.60496900       1.06649600      -0.63233500 
Al      6.01569000       0.07861000       1.90316000       13      -0.18819700      -0.25174700       0.66364500 
Al      5.93358000       1.98363000       0.11524000       13      -0.25899700       0.04604100      -0.90628500 
Al      3.88929000       7.89169000       3.85751000       13       0.46217000      -0.21642100       1.14001500 
Al      3.83073000       2.07563000       6.07311000       13       0.81263400      -1.10728200      -0.71650600 
Al      5.93366000       0.07958000       5.97352000       13      -0.21235800      -0.23928400      -0.48525900 
Al      5.86144000       2.03545000       4.09580000       13       0.08462900      -0.58650700      -0.35740600 
Al      3.92092000       4.13815000       7.64992000       13       0.08457800      -0.98103400       2.13948800 
Al      4.05045000       5.96308000       1.92496000       13      -0.41572800      -0.62706800       0.16376300 
Al      5.95922000       3.77093000       1.96697000       13      -0.34657300       0.82160400       0.02437500 
Al      5.98411000       6.09330000       7.86584000       13       0.32167700      -0.95141000       0.28342900 
Al      3.88727000       3.91447000       4.05876000       13       0.40617300       0.29059900      -0.95885900 