32
Lattice="8.0 0.0 0.0 0.0 8.0 0.0 0.0 0.0 8.0" Properties=species:S:1:pos:R:3:Z:I:1:force:R:3 energy=-117.60230186 pbc="T T T"
Al      0.04967000       7.98617000       0.06477000       13      -0.25819200       0.36499600      -0.03419500 
Al      0.15230000       1.97658000       1.97659000       13      -0.49564200      -0.08693900      -0.42839900 
Al      2.15792000       0.07674000       1.95305000       13      -0.82113400      -0.90264500      -0.07113100 
Al      2.05426000       1.95366000       7.95343000       13      -0.32074500       0.49197800       0.37293000 
Al      0.02420000       7.80867000       3.82751000       13      -0.07693300       0.84262900       0.65470000 
Al      7.94377000       1.89872000       6.03142000       13       0.40124000       0.30891100      -0.19104800 
Al      1.90920000       7.85877000       6.14656000       13       0.76442600       1.37882200      -1.35272400 
Al      1.97742000       2.00675000       3.85753000       13       0.12204600      -0.40883800       0.93431300 
Al      7.94556000       4.01109000       7.88490000       13       0.24252200      -0.14193100       0.22961200 
Al      0.03757000       5.93994000       1.97083000       13      -0.39001300       0.05925700      -0.24418700 
Al      1.93983000       4.18523000       1.99865000       13       0.84070500      -0.63817400      -0.57346300 
Al      1.89423000       6.08225000       7.87792000       13       0.53411900      -1.17461600       1.09701100 
Al      0.02089000       3.80403000       3.86718000       13      -0.42792400       0.75915400       0.65229500 
Al      0.01969000       6.07385000       6.01714000       13      -0.81653000      -0.51932500      -0.48636800 
Al      1.98844000       3.96989000       5.85215000       13      -0.73928200      -0.11082500       0.68888200 
Al      1.92802000       5.95394000       4.10571000       13       0.46412900       0.25624900      -0.54906000 
Al      4.03436000       7.82370000       0.03241000       13      -0.15925800       0.99451500      -0.33955700 
Al      3.96149000       1.93231000       2.06117000       13       0.51295700       0.80699500      -0.47334500 
Al      6.10310000       0.09313000       1.91608000       13      -0.30079100      -0.21007500       0.58033800 
Al      5.96908000       2.03313000       0.09755000       13      -0.11134600      -0.09975500      -0.76793300 
Al      3.95208000       7.98143000       3.88937000       13       0.33521600      -0.19069600       1.00420900 
Al      3.88038000       2.08125000       6.13562000       13       0.60381200      -0.90280000      -0.70445900 
Al      5.99280000       0.10035000       6.03616000       13      -0.29745900      -0.41821600      -0.30163500 
Al      5.93549000       2.03614000       4.15380000       13      -0.00976800      -0.38802700      -0.46974900 
Al      3.99642000       4.15646000       7.73803000       13      -0.11242700      -0.72145600       1.83213900 
Al      4.08219000       6.00870000       1.97010000       13      -0.30383100      -0.52130300       0.03322300 
Al      6.00918000       3.80124000       1.97803000       13      -0.19874000       0.84353100       0.15063500 
Al      6.03571000       6.14779000       7.94817000       13       0.27597800      -0.79243700       0.26477800 
Al      3.91915000       3.94982000       4.09154000       13       0.43147000       0.19987400      -0.78300400 
Al      4.03288000       5.94702000       6.05133000       13      -0.11737700       1.11728000      -1.20368300 
Al      6.00971000       4.09686000       5.92979000       13       0.33411500      -0.19130700       0.01857300 
Al      5.96723000       5.96079000       3.85365000       13       0.13712700      -0.00276400       0.45288800 
32
Lattice="8.0 0.0 0.0 0.0 8.0 0.0 0.0 0.0 8.0" Properties=species:S:1:pos:R:3:Z:I:1:force:R:3 energy=-117.58356672 pbc="T T T"
Al      0.05003000       7.98844000       0.06310000       13      -0.26132500       0.34180100      -0.02160800 
Al      0.15571000       1.97479000       1.97661000       13      -0.52191700      -0.08321200      -0.43637000 
Al      2.15484000       0.08063000       1.95496000       13      -0.80069000      -0.93787900      -0.09914900 
Al      2.05398000       1.95592000       7.95490000       13      -0.31300600       0.48884600       0.37016200 
Al      0.02551000       7.80718000       3.82671000       13      -0.10027300       0.85069000       0.64454600 
Al      7.94662000       1.90157000       6.03003000       13       0.37836500       0.29294500      -0.19314300 
Al      1.91062000       7.86031000       6.14677000       13       0.75240400       1.38407900      -1.34758700 
Al      1.97413000       2.00466000       3.85906000       13       0.14844000      -0.39527500       0.94916500 
Al      7.94311000       4.01041000       7.88448000       13       0.25989800      -0.13422400       0.23218200 
Al      0.03555000       5.93325000       1.97124000       13      -0.38449300       0.09449600      -0.25211000 
Al      1.93945000       4.18380000       2.00014000       13       0.86141300      -0.62928300      -0.57742500 
Al      1.89750000       6.08407000       7.87771000       13       0.50095700      -1.17630300       1.10994600 
Al      0.02273000       3.80190000       3.86530000       13      -0.44022700       0.76587400       0.67154100 
Al      0.02167000       6.07283000       6.01698000       13      -0.82074200      -0.51996200      -0.47394300 
Al      1.99110000       3.96829000       5.85154000       13      -0.77442800      -0.08457900       0.68467700 
Al      1.92601000       5.95902000       4.10874000       13       0.48765400       0.21683100      -0.56682000 
Al      4.03483000       7.82206000       0.02618000       13      -0.17095700       1.02112600      -0.30587400 
Al      3.96140000       1.92816000       2.06427000       13       0.52050300       0.83042500      -0.48563600 
Al      6.09927000       0.09112000       1.91691000       13      -0.28265300      -0.21384600       0.58293600 
Al      5.97263000       2.02893000       0.10032000       13      -0.13000500      -0.07815000      -0.77434800 
Al      3.94871000       7.98010000       3.89021000       13       0.35218500      -0.19213400       1.00833600 
Al      3.87880000       2.08360000       6.13548000       13       0.62391600      -0.92192100      -0.69984000 
Al      5.99300000       0.09750000       6.03590000       13      -0.28445300      -0.38860800      -0.31975800 
Al      5.93347000       2.03903000       4.15136000       13       0.00205900      -0.41052400      -0.44482700 
Al      3.99136000       4.15981000       7.73629000       13      -0.08340100      -0.74987200       1.85207600 
Al      4.08347000       6.01093000       1.96648000       13      -0.31304800      -0.52977900       0.05196200 
Al      6.01069000       3.80238000       1.97928000       13      -0.21868200       0.82637300       0.13020900 
Al      6.03683000       6.14883000       7.94776000       13       0.27855400      -0.80521900       0.26282900 
Al      3.92018000       3.95042000       4.09282000       13       0.42456700       0.20733300      -0.79972400 
Al      4.03185000       5.94811000       6.05242000       13      -0.10405100       1.11359400      -1.23633700 
Al      6.01037000       4.09623000       5.93113000       13       0.32707600      -0.18507200       0.01519900 
Al      5.96878000       5.96217000       3.85304000       13       0.12299200      -0.01018600       0.46107700 
32
Lattice="8.0 0.0 0.0 0.0 8.0 0.0 0.0 0.0 8.0" Properties=species:S:1:pos:R:3:Z:I:1:force:R:3 energy=-117.56492381 pbc="T T T"
Al      0.05036000       7.99074000       0.06143000       13      -0.26369200       0.32041900      -0.00663700 
Al      0.15907000       1.97299000       1.97660000       13      -0.55373800      -0.07981000      -0.44037500 
Al      2.15168000       0.08444000       1.95686000       13      -0.78202500      -0.97255000      -0.12473700 
Al      2.05367000       1.95823000       7.95641000       13      -0.30259100       0.48535000       0.36558100 
Al      0.02681000       7.80576000       3.82598000       13      -0.12243800       0.85505600       0.63623900 
Al      7.94950000       1.90445000       6.02862000       13       0.35341100       0.27484000      -0.19739200 
Al      1.91211000       7.86197000       6.14685000       13       0.73845500       1.38666700      -1.34436500 
Al      1.97085000       2.00253000       3.86068000       13       0.17158100      -0.38920200       0.96305800 
Al      7.94068000       4.00971000       7.88408000       13       0.27527900      -0.12786000       0.23194000 
Al      0.03350000       5.92657000       1.97163000       13      -0.37848100       0.12362100      -0.26273600 
Al      1.93915000       4.18231000       2.00159000       13       0.88166200      -0.61742000      -0.57460100 
Al      1.90082000       6.08578000       7.87760000       13       0.47143600      -1.17666300       1.12549300 
Al      0.02454000       3.79984000       3.86347000       13      -0.44848800       0.77346200       0.68460800 
Al      0.02359000       6.07176000       6.01678000       13      -0.82649800      -0.51667700      -0.45853200 
Al      1.99369000       3.96669000       5.85099000       13      -0.79851500      -0.06285500       0.67536100 
Al      1.92405000       5.96412000       4.11172000       13       0.50549000       0.17381500      -0.58060200 
Al      4.03528000       7.82051000       0.01992000       13      -0.18601700       1.04637100      -0.27129700 
Al      3.96136000       1.92409000       2.06733000       13       0.52935700       0.84969700      -0.49548200 
Al      6.09541000       0.08910000       1.91779000       13      -0.26411600      -0.21719300       0.58531300 
Al      5.97617000       2.02472000       0.10302000       13      -0.14270900      -0.05974000      -0.78209500 
Al      3.94538000       7.97875000       3.89115000       13       0.36525800      -0.19555100       1.01356800 
Al      3.87728000       2.08586000       6.13527000       13       0.64305100      -0.94043900      -0.69151500 
Al      5.99318000       0.09460000       6.03560000       13      -0.26879400      -0.35633300      -0.34115300 
Al      5.93145000       2.04189000       4.14888000       13       0.01142500      -0.42865100      -0.42364100 
Al      3.98629000       4.16308000       7.73472000       13      -0.05648900      -0.77922400       1.87195200 
Al      4.08473000       6.01310000       1.96287000       13      -0.32199800      -0.53653800       0.07040000 
Al      6.01218000       3.80358000       1.98053000       13      -0.23409300       0.80995200       0.11468200 
Al      6.03796000       6.14980000       7.94736000       13       0.28049700      -0.81358700       0.26436600 
Al      3.92125000       3.95103000       4.09403000       13       0.41669400       0.21584800      -0.81354700 
Al      4.03082000       5.94930000       6.05340000       13      -0.08887200       1.11319400      -1.26568600 
Al      6.01106000       4.09558000       5.93247000       13       0.31545400      -0.18103600       0.01070400 
Al      5.97033000       5.96355000       3.85248000       13       0.11005900      -0.01574000       0.46720800 
32
Lattice="8.0 0.0 0.0 0.0 8.0 0.0 0.0 0.0 8.0" Properties=species:S:1:pos:R:3:Z:I:1:force:R:3 energy=-117.5463973 pbc="T T T"
Al      0.05067000       7.99306000       0.05976000       13      -0.26312200       0.30010200       0.00501600 
Al      0.16238000       1.97119000       1.97655000       13      -0.59037700      -0.07322600      -0.44353000 
Al      2.14846000       0.08816000       1.95875000       13      -0.76773600      -1.00239700      -0.15073000 
Al      2.05333000       1.96058000       7.95796000       13      -0.29110200       0.47795600       0.35918600 
Al      0.02810000       7.80441000       3.82530000       13      -0.14384100       0.86170500       0.62720200 
Al      7.95242000       1.90736000       6.02720000       13       0.32492000       0.25430800      -0.20049800 
Al      1.91367000       7.86376000       6.14682000       13       0.72655900       1.38986800      -1.33836800 
Al      1.96758000       2.00036000       3.86238000       13       0.19587900      -0.37907900       0.97104400 
Al      7.93827000       4.00900000       7.88370000       13       0.29183600      -0.12526500       0.23067600 
Al      0.03142000       5.91990000       1.97199000       13      -0.37178300       0.16050700      -0.27121400 
Al      1.93893000       4.18077000       2.00298000       13       0.89779100      -0.60562000      -0.57699100 
Al      1.90419000       6.08738000       7.87760000       13       0.43802500      -1.17760600       1.14005300 
Al      0.02630000       3.79784000       3.86171000       13      -0.45433500       0.77864000       0.69630100 
Al      0.02543000       6.07065000       6.01653000       13      -0.82812900      -0.51283100      -0.44435900 
Al      1.99622000       3.96508000       5.85051000       13      -0.82714900      -0.04001900       0.66815900 
Al      1.92213000       5.96924000       4.11464000       13       0.52522700       0.13101600      -0.60468200 
Al      4.03571000       7.81905000       0.01364000       13      -0.19782700       1.06857300      -0.23448500 
Al      3.96137000       1.92009000       2.07035000       13       0.53656800       0.87398800      -0.50694600 
Al      6.09153000       0.08705000       1.91872000       13      -0.24549800      -0.21880700       0.58602300 
Al      5.97969000       2.02051000       0.10565000       13      -0.16342400      -0.03742600      -0.78392400 
Al      3.94207000       7.97739000       3.89218000       13       0.37328900      -0.20040100       1.01923800 
Al      3.87581000       2.08805000       6.13500000       13       0.66509900      -0.95481100      -0.68331300 
Al      5.99333000       0.09168000       6.03527000       13      -0.25488500      -0.32602500      -0.36215600 
Al      5.92944000       2.04471000       4.14637000       13       0.02172700      -0.45018400      -0.40092000 
Al      3.98122000       4.16629000       7.73332000       13      -0.02661800      -0.79990600       1.88571700 
Al      4.08595000       6.01523000       1.95927000       13      -0.33128800      -0.54536200       0.08737700 
Al      6.01364000       3.80486000       1.98180000       13      -0.24506700       0.79666800       0.10048800 
Al      6.03913000       6.15070000       7.94700000       13       0.28573100      -0.82211700       0.26286100 
Al      3.92236000       3.95166000       4.09516000       13       0.40516200       0.22031200      -0.82653000 
Al      4.02978000       5.95059000       6.05427000       13      -0.07533300       1.10340800      -1.29746600 
Al      6.01179000       4.09492000       5.93380000       13       0.30198100      -0.17670700       0.01135100 
Al      5.97189000       5.96492000       3.85196000       13       0.09236400      -0.02437400       0.46999000 
32
Lattice="8.0 0.0 0.0 0.0 8.0 0.0 0.0 0.0 8.0" Properties=species:S:1:pos:R:3:Z:I:1:force:R:3 energy=-117.52801773 pbc="T T T"
Al      0.05096000       7.99541000       0.05809000       13      -0.26401500       0.27687500       0.01871200 
Al      0.16564000       1.96938000       1.97646000       13      -0.62363900      -0.06740200      -0.45134500 
Al      2.14516000       0.09178000       1.96062000       13      -0.74013200      -1.03847500      -0.17675800 
Al      2.05297000       1.96297000       7.95953000       13      -0.27829300       0.47411000       0.34996200 
Al      0.02937000       7.80315000       3.82468000       13      -0.16819200       0.86739400       0.61928500 
Al      7.95536000       1.91029000       6.02575000       13       0.30131600       0.23376300      -0.19733700 
Al      1.91529000       7.86567000       6.14666000       13       0.71350900       1.39090500      -1.33012700 
Al      1.96433000       1.99816000       3.86417000       13       0.23041800      -0.35901100       0.97951800 
Al      7.93589000       4.00828000       7.88334000       13       0.30721300      -0.12131500       0.23149400 
Al      0.02930000       5.91325000       1.97233000       13      -0.35971100       0.19453400      -0.27593700 
Al      1.93878000       4.17918000       2.00432000       13       0.91589500      -0.59441900      -0.57416700 
Al      1.90759000       6.08888000       7.87769000       13       0.40240200      -1.17751000       1.14619100 
Al      0.02803000       3.79591000       3.86001000       13      -0.46604000       0.78712600       0.71505200 
Al      0.02719000       6.06949000       6.01625000       13      -0.83090300      -0.50825900      -0.43308300 
Al      1.99867000       3.96347000       5.85008000       13      -0.85237900      -0.01579200       0.65507600 
Al      1.92026000       5.97437000       4.11751000       13       0.55030300       0.08376400      -0.62292300 
Al      4.03613000       7.81769000       0.00734000       13      -0.20948400       1.09661200      -0.20106100 
Al      3.96143000       1.91618000       2.07332000       13       0.54570600       0.89810900      -0.52228900 
Al      6.08762000       0.08499000       1.91971000       13      -0.22420400      -0.21869900       0.58188600 
Al      5.98320000       2.01630000       0.10822000       13      -0.18499900      -0.01206800      -0.78697100 
Al      3.93880000       7.97600000       3.89330000       13       0.38244500      -0.20065300       1.02421300 
Al      3.87440000       2.09014000       6.13467000       13       0.68222400      -0.96861100      -0.67269200 
Al      5.99346000       0.08872000       6.03491000       13      -0.24171100      -0.29821000      -0.37933300 
Al      5.92742000       2.04749000       4.14381000       13       0.03179400      -0.46903200      -0.37503100 
Al      3.97615000       4.16943000       7.73209000       13      -0.00587500      -0.82169700       1.89578500 
Al      4.08715000       6.01731000       1.95567000       13      -0.33994800      -0.54625600       0.09801900 
Al      6.01509000       3.80621000       1.98308000       13      -0.26123700       0.78035300       0.08486200 
Al      6.04032000       6.15152000       7.94665000       13       0.29060200      -0.83120500       0.25955400 
Al      3.92350000       3.95231000       4.09622000       13       0.39435700       0.22728000      -0.84092200 
Al      4.02873000       5.95197000       6.05502000       13      -0.06242500       1.09645000      -1.32582500 
Al      6.01253000       4.09423000       5.93514000       13       0.29202800      -0.17025800       0.00799800 
Al      5.97346000       5.96630000       3.85148000       13       0.07719900      -0.03062800       0.47423100 
32
Lattice="8.0 0.0 0.0 0.0 8.0 0.0 0.0 0.0 8.0" Properties=species:S:1:pos:R:3:Z:I:1:force:R:3 energy=-117.50984538 pbc="T T T"
Al      0.05122000       7.99779000       0.05643000       13      -0.26727300       0.25747100       0.02607800 
Al      0.16884000       1.96756000       1.97633000       13      -0.65925900      -0.06222800      -0.45319800 
Al      2.14180000       0.09532000       1.96248000       13      -0.71472000      -1.07379800      -0.20202100 
Al      2.05258000       1.96541000       7.96114000       13      -0.26881800       0.47289100       0.34560200 
Al      0.03064000       7.80196000       3.82411000       13      -0.19013700       0.87286500       0.60857500 
Al      7.95833000       1.91324000       6.02429000       13       0.27643000       0.21281900      -0.19542700 
Al      1.91698000       7.86770000       6.14638000       13       0.69828700       1.39150600      -1.32302400 
Al      1.96110000       1.99593000       3.86605000       13       0.24961100      -0.35140300       0.98207200 
Al      7.93354000       4.00755000       7.88300000       13       0.32645800      -0.11330600       0.23678200 
Al      0.02716000       5.90662000       1.97265000       13      -0.35010500       0.22478900      -0.27864300 
Al      1.93872000       4.17753000       2.00561000       13       0.93205000      -0.58292100      -0.57422100 
Al      1.91102000       6.09027000       7.87789000       13       0.37167000      -1.17475100       1.15303800 
Al      0.02971000       3.79406000       3.85837000       13      -0.47543100       0.80117300       0.72857500 
Al      0.02889000       6.06828000       6.01593000       13      -0.83302400      -0.50156100      -0.42118900 
Al      2.00104000       3.96186000       5.84971000       13      -0.87431000       0.00456800       0.64276100 
Al      1.91844000       5.97950000       4.12033000       13       0.56887800       0.04330500      -0.63749700 
Al      4.03653000       7.81643000       0.00102000       13      -0.22135700       1.11967300      -0.16224200 
Al      3.96153000       1.91234000       2.07625000       13       0.55034000       0.91897100      -0.53800200 
Al      6.08370000       0.08290000       1.92075000       13      -0.19626300      -0.21997300       0.57862200 
Al      5.98669000       2.01208000       0.11071000       13      -0.20115500       0.00756600      -0.79203600 
Al      3.93557000       7.97460000       3.89451000       13       0.39289500      -0.20212900       1.02587400 
Al      3.87306000       2.09215000       6.13427000       13       0.70150900      -0.98164900      -0.66030100 
Al      5.99356000       0.08574000       6.03452000       13      -0.22635500      -0.26714200      -0.39549600 
Al      5.92541000       2.05023000       4.14123000       13       0.04056900      -0.48369700      -0.34921300 
Al      3.97107000       4.17249000       7.73103000       13       0.02333800      -0.83836000       1.90989700 
Al      4.08831000       6.01934000       1.95208000       13      -0.35269500      -0.54989000       0.11348100 
Al      6.01651000       3.80763000       1.98436000       13      -0.27742600       0.76655500       0.06495400 
Al      6.04153000       6.15227000       7.94633000       13       0.29620900      -0.83930300       0.25849300 
Al      3.92468000       3.95298000       4.09721000       13       0.38540700       0.23261300      -0.85546300 
Al      4.02768000       5.95346000       6.05565000       13      -0.04733100       1.08418200      -1.35520600 
Al      6.01331000       4.09354000       5.93648000       13       0.28107000      -0.16673000       0.00581800 
Al      5.97504000       5.96767000       3.85105000       13       0.06435900      -0.03719000       0.48132200 
32
Lattice="8.0 0.0 0.0 0.0 8.0 0.0 0.0 0.0 8.0" Properties=species:S:1:pos:R:3:Z:I:1:force:R:3 energy=-117.4919758 pbc="T T T"
Al      0.05146000       0.00019000       0.05476000       13      -0.27038600       0.23841700       0.03308200 
Al      0.17198000       1.96573000       1.97616000       13      -0.69268700      -0.04990800      -0.44920400 
Al      2.13838000       0.09876000       1.96432000       13      -0.69481500      -1.10738100      -0.22620200 
Al      2.05217000       1.96789000       7.96278000       13      -0.25564300       0.46846800       0.34189300 
Al      0.03188000       7.80085000       3.82360000       13      -0.21792400       0.88256300       0.59990300 
Al      7.96133000       1.91621000       6.02281000       13       0.25486300       0.19251200      -0.19639800 
Al      1.91873000       7.86986000       6.14599000       13       0.68315400       1.38391900      -1.31401000 
Al      1.95789000       1.99366000       3.86802000       13       0.27287300      -0.34376300       0.99039000 
Al      7.93122000       4.00681000       7.88268000       13       0.34033900      -0.11033900       0.24015900 
Al      0.02498000       5.90000000       1.97294000       13      -0.34002200       0.26111900      -0.28101700 
Al      1.93874000       4.17583000       2.00684000       13       0.94642700      -0.56972100      -0.57296300 
Al      1.91449000       6.09156000       7.87819000       13       0.33535600      -1.16920000       1.15520000 
Al      0.03135000       3.79228000       3.85680000       13      -0.48429700       0.80996000       0.73940400 
Al      0.03050000       6.06704000       6.01557000       13      -0.83640600      -0.49269700      -0.40344300 
Al      2.00334000       3.96024000       5.84940000       13      -0.89794100       0.02729000       0.63257100 
Al      1.91667000       5.98464000       4.12309000       13       0.58896300       0.00693600      -0.65334400 
Al      4.03690000       7.81526000       7.99468000       13      -0.22902800       1.14272200      -0.12432400 
Al      3.96168000       1.90858000       2.07913000       13       0.55441600       0.93675900      -0.54722700 
Al      6.07976000       0.08080000       1.92184000       13      -0.17198900      -0.22091700       0.58168000 
Al      5.99017000       2.00787000       0.11312000       13      -0.21848100       0.02533600      -0.79550300 
Al      3.93236000       7.97318000       3.89582000       13       0.40095400      -0.20025800       1.02345200 
Al      3.87177000       2.09407000       6.13382000       13       0.71829700      -0.99214000      -0.65250800 
Al      5.99365000       0.08274000       6.03409000       13      -0.20937800      -0.23367600      -0.41260700 
Al      5.92341000       2.05293000       4.13861000       13       0.05321900      -0.50787500      -0.32520300 
Al      3.96600000       4.17548000       7.73014000       13       0.05102900      -0.86480700       1.92607100 
Al      4.08945000       6.02132000       1.94850000       13      -0.36265800      -0.55275600       0.12854100 
Al      6.01791000       3.80912000       1.98565000       13      -0.29096800       0.74996200       0.05150900 
Al      6.04277000       6.15295000       7.94603000       13       0.29860100      -0.84474700       0.25644200 
Al      3.92590000       3.95367000       4.09812000       13       0.37475400       0.24295600      -0.86498500 
Al      4.02662000       5.95504000       6.05617000       13      -0.03337200       1.07295500      -1.37877400 
Al      6.01411000       4.09283000       5.93782000       13       0.26859200      -0.16015300      -0.00029300 
Al      5.97663000       5.96904000       3.85065000       13       0.05020500      -0.04706300       0.49140800 
32
Lattice="8.0 0.0 0.0 0.0 8.0 0.0 0.0 0.0 8.0" Properties=species:S:1:pos:R:3:Z:I:1:force:R:3 energy=-117.4745413 pbc="T T T"
Al      0.05168000       0.00261000       0.05310000       13      -0.26608700       0.21916300       0.03914700 
Al      0.17506000       1.96391000       1.97595000       13      -0.72198800      -0.04031700      -0.45221900 
Al      2.13489000       0.10210000       1.96614000       13      -0.66786600      -1.14208100      -0.25198100 
Al      2.05174000       1.97041000       7.96444000       13      -0.24636700       0.46573000       0.33469800 
Al      0.03311000       7.79982000       3.82314000       13      -0.23934300       0.88620600       0.58984600 
Al      7.96435000       1.91919000       6.02132000       13       0.22467200       0.17546200      -0.20028300 
Al      1.92054000       7.87215000       6.14548000       13       0.66356500       1.38202300      -1.30005300 
Al      1.95471000       1.99137000       3.87008000       13       0.29627500      -0.33681200       0.99891700 
Al      7.92893000       4.00606000       7.88238000       13       0.35487900      -0.10617800       0.24282200 
Al      0.02276000       5.89341000       1.97320000       13      -0.33193200       0.29197900      -0.28871500 
Al      1.93885000       4.17408000       2.00803000       13       0.96295300      -0.55979900      -0.57069500 
Al      1.91799000       6.09275000       7.87860000       13       0.30541500      -1.16049100       1.15781400 
Al      0.03294000       3.79056000       3.85530000       13      -0.49149000       0.81840600       0.75597300 
Al      0.03205000       6.06574000       6.01517000       13      -0.83468900      -0.48652400      -0.38936800 
Al      2.00555000       3.95863000       5.84915000       13      -0.92167000       0.04940200       0.62197000 
Al      1.91495000       5.98979000       4.12579000       13       0.61004200      -0.03143400      -0.67022300 
Al      4.03726000       7.81421000       7.98834000       13      -0.23495400       1.16581400      -0.09172300 
Al      3.96188000       1.90491000       2.08196000       13       0.55803300       0.96147900      -0.56048700 
Al      6.07580000       0.07868000       1.92298000       13      -0.14963700      -0.22353700       0.58795000 
Al      5.99363000       2.00365000       0.11547000       13      -0.23533900       0.04503000      -0.79546300 
Al      3.92920000       7.97174000       3.89721000       13       0.41369300      -0.19689700       1.02179000 
Al      3.87055000       2.09590000       6.13331000       13       0.73278100      -1.00304300      -0.64157800 
Al      5.99372000       0.07971000       6.03362000       13      -0.19507100      -0.20625600      -0.42852200 
Al      5.92140000       2.05558000       4.13596000       13       0.06509200      -0.52577000      -0.30323500 
Al      3.96093000       4.17839000       7.72942000       13       0.07092300      -0.88265600       1.93456500 
Al      4.09055000       6.02325000       1.94494000       13      -0.37092900      -0.55711500       0.14680700 
Al      6.01929000       3.81068000       1.98694000       13      -0.30460000       0.73456500       0.03655600 
Al      6.04404000       6.15355000       7.94575000       13       0.29716300      -0.85115300       0.25157600 
Al      3.92714000       3.95439000       4.09895000       13       0.36261900       0.25066800      -0.87756400 
Al      4.02556000       5.95671000       6.05656000       13      -0.02090700       1.06056500      -1.40187800 