32
Lattice="8.3 0.0 0.0 0.0 8.3 0.0 0.0 0.0 8.3" Properties=species:S:1:pos:R:3:Z:I:1:force:R:3 energy=-117.72623572 pbc="T T T"
Al      0.04967000       8.28617000       0.06477000       13      -0.16124200       0.23669100      -0.01226100 
Al      0.15230000       2.05158000       2.05159000       13      -0.31835600      -0.08058000      -0.29992800 
Al      2.23292000       0.07674000       2.02805000       13      -0.51344300      -0.56772700      -0.06502200 
Al      2.12926000       2.02866000       8.25343000       13      -0.22096900       0.31029700       0.26737400 
Al      0.02420000       8.10867000       3.97751000       13      -0.04780900       0.49206500       0.40409000 
Al      8.24377000       1.97372000       6.25642000       13       0.24646200       0.19486800      -0.12041900 
Al      1.98420000       8.15877000       6.37156000       13       0.50015400       0.92375300      -0.87793900 
Al      2.05242000       2.08175000       4.00753000       13       0.06418600      -0.24634500       0.61683300 
Al      8.24556000       4.16109000       8.18490000       13       0.14909100      -0.09755700       0.13313700 
Al      0.03757000       6.16494000       2.04583000       13      -0.24892100       0.02138900      -0.16546800 
Al      2.01483000       4.33523000       2.07365000       13       0.54368700      -0.37642700      -0.38782000 
Al      1.96923000       6.30725000       8.17792000       13       0.34292600      -0.77796400       0.75494400 
Al      0.02089000       3.95403000       4.01718000       13      -0.28720800       0.46823700       0.40089600 
Al      0.01969000       6.29885000       6.24214000       13      -0.54133700      -0.34321400      -0.30561100 
Al      2.06344000       4.11989000       6.07715000       13      -0.48861900      -0.07599900       0.43343900 
Al      2.00302000       6.17894000       4.25571000       13       0.28894400       0.14851400      -0.33789200 
Al      4.18436000       8.12370000       0.03241000       13      -0.10671700       0.63490600      -0.20891800 
Al      4.11149000       2.00731000       2.13617000       13       0.35066100       0.49757600      -0.28888000 
Al      6.32810000       0.09313000       1.99108000       13      -0.18627400      -0.14011700       0.36453500 
Al      6.19408000       2.10813000       0.09755000       13      -0.07088100      -0.05514600      -0.48600500 
Al      4.10208000       8.28143000       4.03937000       13       0.22892200      -0.13626500       0.63762000 
Al      4.03038000       2.15625000       6.36062000       13       0.38826800      -0.56988900      -0.43549300 
Al      6.21780000       0.10035000       6.26116000       13      -0.18448300      -0.24740400      -0.19080100 
Al      6.16049000       2.11114000       4.30380000       13      -0.02960400      -0.24058700      -0.25374000 
Al      4.14642000       4.30646000       8.03803000       13      -0.07876600      -0.46456500       1.18827900 
Al      4.23219000       6.23370000       2.04510000       13      -0.18811800      -0.33333800       0.01513300 
Al      6.23418000       3.95124000       2.05303000       13      -0.10055000       0.53591200       0.09191300 
Al      6.26071000       6.37279000       8.24817000       13       0.19085700      -0.48683300       0.17742200 
Al      4.06915000       4.09982000       4.24154000       13       0.26235800       0.09501200      -0.50584500 
Al      4.18288000       6.17202000       6.27633000       13      -0.08812300       0.73725600      -0.80411500 
Al      6.23471000       4.24686000       6.15479000       13       0.20635500      -0.09140700      -0.00298200 
Al      6.19223000       6.18579000       4.00365000       13       0.07170200      -0.01031700       0.28223100 
32
Lattice="8.3 0.0 0.0 0.0 8.3 0.0 0.0 0.0 8.3" Properties=species:S:1:pos:R:3:Z:I:1:force:R:3 energy=-117.71372866 pbc="T T T"
Al      0.05004000       8.28843000       0.06310000       13      -0.16281600       0.22583200      -0.00560000 
Al      0.15573000       2.04979000       2.05163000       13      -0.33452700      -0.07685900      -0.30463800 
Al      2.22987000       0.08066000       2.02996000       13      -0.49874500      -0.59136000      -0.08448000 
Al      2.12898000       2.03091000       8.25489000       13      -0.21650500       0.31126000       0.26882000 
Al      0.02551000       8.10715000       3.97669000       13      -0.05928100       0.49404000       0.40259200 
Al      8.24661000       1.97656000       6.25504000       13       0.22896700       0.17781000      -0.12403600 
Al      1.98560000       8.16027000       6.37181000       13       0.49021200       0.93410100      -0.87423100 
Al      2.04912000       2.07967000       4.00903000       13       0.07660200      -0.24227500       0.63074700 
Al      8.24310000       4.16041000       8.18447000       13       0.15589900      -0.09419900       0.13732700 
Al      0.03557000       6.15825000       2.04625000       13      -0.24212200       0.04240900      -0.16805300 
Al      2.01442000       4.33382000       2.07516000       13       0.55308900      -0.36352600      -0.38712400 
Al      1.97249000       6.30910000       8.17768000       13       0.32545100      -0.78098000       0.76180700 
Al      0.02274000       3.95187000       4.01528000       13      -0.29445900       0.47321500       0.41534100 
Al      0.02170000       6.29784000       6.24199000       13      -0.54189800      -0.34291000      -0.29888100 
Al      2.06612000       4.11830000       6.07652000       13      -0.50418600      -0.06229200       0.42948100 
Al      2.00099000       6.18401000       4.25876000       13       0.30066900       0.12887000      -0.34924900 
Al      4.18483000       8.12202000       0.02619000       13      -0.10737200       0.65139600      -0.18172800 
Al      4.11139000       2.00313000       2.13929000       13       0.35810000       0.51001400      -0.29359000 
Al      6.32428000       0.09113000       1.99189000       13      -0.15942700      -0.13239700       0.36507200 
Al      6.19763000       2.10393000       0.10035000       13      -0.07977900      -0.04772200      -0.48550900 
Al      4.09870000       8.28011000       4.04018000       13       0.23593400      -0.13731900       0.64390100 
Al      4.02878000       2.15863000       6.36050000       13       0.40194300      -0.57970400      -0.43023600 
Al      6.21801000       0.09751000       6.26091000       13      -0.17704400      -0.22581300      -0.20589900 
Al      6.15847000       2.11405000       4.30138000       13      -0.02386600      -0.24909700      -0.23289800 
Al      4.14136000       4.30983000       8.03623000       13      -0.05730000      -0.47672100       1.20329000 
Al      4.23348000       6.23594000       2.04148000       13      -0.18961900      -0.34161600       0.02737100 
Al      6.23569000       3.95235000       2.05427000       13      -0.11218700       0.52657100       0.07821800 
Al      6.26182000       6.37386000       8.24775000       13       0.19128800      -0.49640800       0.17794200 
Al      4.07017000       4.10041000       4.24284000       13       0.25671900       0.10100000      -0.51310800 
Al      4.18185000       6.17308000       6.27745000       13      -0.07900900       0.73775100      -0.82413600 
Al      6.23536000       4.24624000       6.15613000       13       0.20222100      -0.08997500      -0.00510200 
Al      6.19377000       6.18717000       4.00303000       13       0.06147900      -0.01342700       0.28972500 
32
Lattice="8.3 0.0 0.0 0.0 8.3 0.0 0.0 0.0 8.3" Properties=species:S:1:pos:R:3:Z:I:1:force:R:3 energy=-117.70050477 pbc="T T T"
Al      0.05039000       8.29070000       0.06144000       13      -0.16643100       0.21677800       0.00131100 
Al      0.15912000       2.04800000       2.05164000       13      -0.35362600      -0.07589900      -0.30713900 
Al      2.22676000       0.08453000       2.03186000       13      -0.48867500      -0.61209600      -0.09947900 
Al      2.12869000       2.03318000       8.25639000       13      -0.21139100       0.30993600       0.26651300 
Al      0.02682000       8.10566000       3.97591000       13      -0.07229800       0.49745000       0.39746400 
Al      8.24946000       1.97942000       6.25364000       13       0.21016000       0.16785200      -0.12157400 
Al      1.98704000       8.16185000       6.37198000       13       0.48595900       0.93753200      -0.87476400 
Al      2.04583000       2.07757000       4.01059000       13       0.09727800      -0.23583000       0.63001600 
Al      8.24065000       4.15972000       8.18405000       13       0.16417500      -0.09542200       0.13760700 
Al      0.03354000       6.15156000       2.04665000       13      -0.23595000       0.06080300      -0.17388000 
Al      2.01407000       4.33238000       2.07664000       13       0.56697800      -0.35979700      -0.38960900 
Al      1.97577000       6.31088000       8.17751000       13       0.30698500      -0.78387700       0.77053800 
Al      0.02457000       3.94976000       4.01341000       13      -0.29778100       0.48120000       0.42382900 
Al      0.02366000       6.29681000       6.24182000       13      -0.54477000      -0.34205100      -0.29398800 
Al      2.06876000       4.11670000       6.07592000       13      -0.52620300      -0.04802000       0.42445400 
Al      1.99900000       6.18909000       4.26177000       13       0.31533800       0.10711700      -0.36067700 
Al      4.18529000       8.12041000       0.01996000       13      -0.11533800       0.66883300      -0.16201800 
Al      4.11132000       1.99901000       2.14238000       13       0.36470400       0.52313800      -0.30049900 
Al      6.32044000       0.08912000       1.99273000       13      -0.13688500      -0.12968600       0.37394700 
Al      6.20118000       2.09973000       0.10310000       13      -0.09203800      -0.03058300      -0.48770300 
Al      4.09535000       8.27877000       4.04105000       13       0.24321600      -0.13317500       0.64903800 
Al      4.02722000       2.16096000       6.36034000       13       0.41567000      -0.59175300      -0.42780400 
Al      6.21821000       0.09465000       6.26063000       13      -0.16532900      -0.20270400      -0.21822100 
Al      6.15645000       2.11693000       4.29894000       13      -0.01654600      -0.26575600      -0.21305300 
Al      4.13630000       4.31315000       8.03455000       13      -0.03592600      -0.49920100       1.21258800 
Al      4.23476000       6.23815000       2.03787000       13      -0.19516500      -0.34278600       0.03731100 
Al      6.23720000       3.95350000       2.05552000       13      -0.11854200       0.51635600       0.06910700 
Al      6.26294000       6.37488000       8.24734000       13       0.19502100      -0.50325600       0.17377500 
Al      4.07121000       4.10100000       4.24410000       13       0.25389300       0.10693300      -0.52333500 
Al      4.18083000       6.17420000       6.27851000       13      -0.07192500       0.73878700      -0.84404600 
Al      6.23603000       4.24561000       6.15746000       13       0.19530900      -0.08885400      -0.00951500 
Al      6.19531000       6.18854000       4.00244000       13       0.05400000      -0.01599800       0.29510000 
32
Lattice="8.3 0.0 0.0 0.0 8.3 0.0 0.0 0.0 8.3" Properties=species:S:1:pos:R:3:Z:I:1:force:R:3 energy=-117.68667482 pbc="T T T"
Al      0.05073000       8.29300000       0.05977000       13      -0.16395700       0.20417900       0.00907600 
Al      0.16248000       2.04619000       2.05162000       13      -0.36752900      -0.07425200      -0.31119200 
Al      2.22362000       0.08834000       2.03375000       13      -0.47416700      -0.64118000      -0.12156600 
Al      2.12839000       2.03548000       8.25790000       13      -0.20668500       0.30717500       0.26361500 
Al      0.02812000       8.10423000       3.97517000       13      -0.08811300       0.49985500       0.39147000 
Al      8.25234000       1.98230000       6.25224000       13       0.19715500       0.15495700      -0.12306000 
Al      1.98853000       8.16351000       6.37207000       13       0.47487600       0.93951500      -0.87362700 
Al      2.04254000       2.07544000       4.01221000       13       0.11659000      -0.23166100       0.63687500 
Al      8.23822000       4.15903000       8.18364000       13       0.17276300      -0.08993800       0.14088000 
Al      0.03150000       6.14488000       2.04704000       13      -0.23678700       0.08333400      -0.18346500 
Al      2.01376000       4.33091000       2.07808000       13       0.57809700      -0.35502600      -0.38807300 
Al      1.97909000       6.31259000       8.17741000       13       0.28772100      -0.78997300       0.78111400 
Al      0.02638000       3.94768000       4.01157000       13      -0.30190900       0.48619800       0.43243100 
Al      0.02558000       6.29574000       6.24163000       13      -0.54626000      -0.33868000      -0.28582700 
Al      2.07136000       4.11510000       6.07537000       13      -0.54177800      -0.03454700       0.41757400 
Al      1.99703000       6.19419000       4.26476000       13       0.33192400       0.08749100      -0.36796800 
Al      4.18575000       8.11885000       0.01371000       13      -0.12600100       0.68675400      -0.14036200 
Al      4.11128000       1.99493000       2.14545000       13       0.37349400       0.54071400      -0.30982200 
Al      6.31659000       0.08709000       1.99361000       13      -0.12811300      -0.13340000       0.37616600 
Al      6.20472000       2.09553000       0.10581000       13      -0.10502400      -0.01525300      -0.49063100 
Al      4.09201000       8.27742000       4.04198000       13       0.24952500      -0.13335800       0.65322200 
Al      4.02569000       2.16323000       6.36014000       13       0.42976400      -0.60127500      -0.42098200 
Al      6.21839000       0.09177000       6.26033000       13      -0.15551000      -0.18441000      -0.23044200 
Al      6.15443000       2.11980000       4.29648000       13      -0.01025800      -0.27915500      -0.19503000 
Al      4.13124000       4.31643000       8.03297000       13      -0.02454800      -0.51658300       1.22574300 
Al      4.23602000       6.24033000       2.03425000       13      -0.20543500      -0.34410600       0.05079000 
Al      6.23870000       3.95470000       2.05677000       13      -0.12588900       0.50891500       0.05897100 
Al      6.26408000       6.37586000       8.24695000       13       0.19863500      -0.51068900       0.17049600 
Al      4.07227000       4.10160000       4.24531000       13       0.24744700       0.11567400      -0.53355800 
Al      4.17979000       6.17538000       6.27949000       13      -0.06504000       0.73665000      -0.86446700 
Al      6.23672000       4.24497000       6.15879000       13       0.18565000      -0.08589900      -0.01157500 
Al      6.19686000       6.18992000       4.00187000       13       0.04247300      -0.01887500       0.29927000 
32
Lattice="8.3 0.0 0.0 0.0 8.3 0.0 0.0 0.0 8.3" Properties=species:S:1:pos:R:3:Z:I:1:force:R:3 energy=-117.67218939 pbc="T T T"
Al      0.05105000       8.29531000       0.05811000       13      -0.16302500       0.18963700       0.01746300 
Al      0.16581000       2.04438000       2.05158000       13      -0.39261600      -0.07431400      -0.31388200 
Al      2.22043000       0.09209000       2.03563000       13      -0.45915200      -0.66484100      -0.13692800 
Al      2.12806000       2.03781000       8.25944000       13      -0.19940600       0.30636100       0.26125500 
Al      0.02941000       8.10283000       3.97446000       13      -0.10093400       0.50328700       0.38767700 
Al      8.25523000       1.98519000       6.25082000       13       0.18165500       0.14060200      -0.12114800 
Al      1.99006000       8.16526000       6.37208000       13       0.46463900       0.93930400      -0.86875100 
Al      2.03927000       2.07330000       4.01388000       13       0.13094700      -0.23002000       0.64648700 
Al      8.23580000       4.15832000       8.18325000       13       0.18603700      -0.08306000       0.13855500 
Al      0.02943000       6.13821000       2.04741000       13      -0.22746700       0.10402200      -0.18381500 
Al      2.01351000       4.32941000       2.07948000       13       0.59091600      -0.34527100      -0.38543400 
Al      1.98243000       6.31423000       8.17738000       13       0.27029700      -0.79212500       0.79127000 
Al      0.02816000       3.94565000       4.00978000       13      -0.31010100       0.49502000       0.44151200 
Al      0.02744000       6.29465000       6.24140000       13      -0.54868300      -0.33745000      -0.28035500 
Al      2.07390000       4.11349000       6.07485000       13      -0.55793400      -0.01595600       0.40879500 
Al      1.99510000       6.19929000       4.26771000       13       0.34781900       0.06255600      -0.37796500 
Al      4.18618000       8.11736000       0.00744000       13      -0.13443300       0.70257900      -0.12159600 
Al      4.11128000       1.99089000       2.14849000       13       0.37856800       0.56134000      -0.31842300 
Al      6.31273000       0.08506000       1.99452000       13      -0.11909300      -0.13696900       0.37848100 
Al      6.20824000       2.09133000       0.10847000       13      -0.11777500       0.00101900      -0.49215400 
Al      4.08870000       8.27605000       4.04297000       13       0.25392800      -0.13125500       0.65456400 
Al      4.02420000       2.16545000       6.35990000       13       0.44508800      -0.61737900      -0.41259600 
Al      6.21855000       0.08887000       6.26001000       13      -0.14878300      -0.16615900      -0.24154800 
Al      6.15240000       2.12263000       4.29400000       13      -0.00443600      -0.29374500      -0.18414500 
Al      4.12617000       4.31967000       8.03151000       13      -0.00957600      -0.53253700       1.23463800 
Al      4.23726000       6.24248000       2.03065000       13      -0.20937500      -0.35211400       0.05752600 
Al      6.24019000       3.95594000       2.05803000       13      -0.13297000       0.50174000       0.04860500 
Al      6.26524000       6.37680000       8.24657000       13       0.20108700      -0.51647600       0.17035600 
Al      4.07336000       4.10222000       4.24648000       13       0.24065900       0.12163300      -0.54401500 
Al      4.17875000       6.17664000       6.28039000       13      -0.05422700       0.73243500      -0.88606600 
Al      6.23742000       4.24432000       6.16012000       13       0.17784400      -0.08291500      -0.01205800 
Al      6.19841000       6.19129000       4.00133000       13       0.03131100      -0.02342100       0.30489200 
32
Lattice="8.3 0.0 0.0 0.0 8.3 0.0 0.0 0.0 8.3" Properties=species:S:1:pos:R:3:Z:I:1:force:R:3 energy=-117.6571869 pbc="T T T"
Al      0.05135000       8.29764000       0.05644000       13      -0.16354800       0.17569900       0.02427900 
Al      0.16910000       2.04256000       2.05151000       13      -0.40934700      -0.07090400      -0.31853800 
Al      2.21720000       0.09579000       2.03750000       13      -0.44527500      -0.68717300      -0.15173700 
Al      2.12771000       2.04017000       8.26100000       13      -0.18884400       0.30427900       0.26047400 
Al      0.03069000       8.10148000       3.97378000       13      -0.11588600       0.50500700       0.38100800 
Al      8.25814000       1.98809000       6.24939000       13       0.16035200       0.12686300      -0.12359200 
Al      1.99163000       8.16710000       6.37201000       13       0.45532700       0.94380800      -0.86746900 
Al      2.03601000       2.07113000       4.01562000       13       0.14595100      -0.22020700       0.65396200 
Al      8.23340000       4.15761000       8.18287000       13       0.19339900      -0.08170300       0.14174400 
Al      0.02735000       6.13154000       2.04776000       13      -0.22562500       0.12693200      -0.19134900 
Al      2.01331000       4.32788000       2.08086000       13       0.60158000      -0.34032800      -0.38270000 
Al      1.98579000       6.31580000       8.17742000       13       0.24775300      -0.79183500       0.79936400 
Al      0.02991000       3.94367000       4.00803000       13      -0.32354400       0.50402400       0.45362000 
Al      0.02926000       6.29352000       6.24116000       13      -0.54639500      -0.33520100      -0.27573000 
Al      2.07640000       4.11189000       6.07437000       13      -0.57917700       0.00260100       0.40286800 
Al      1.99319000       6.20440000       4.27062000       13       0.36360300       0.03096100      -0.39089500 
Al      4.18661000       8.11593000       0.00117000       13      -0.14374600       0.71463300      -0.09969300 
Al      4.11131000       1.98691000       2.15150000       13       0.38293600       0.57490200      -0.32550300 
Al      6.30886000       0.08301000       1.99546000       13      -0.11019100      -0.14051100       0.38096700 
Al      6.21176000       2.08713000       0.11109000       13      -0.12947300       0.01140600      -0.49402400 
Al      4.08541000       8.27468000       4.04402000       13       0.26243600      -0.13261900       0.65469500 
Al      4.02276000       2.16761000       6.35963000       13       0.45828900      -0.62565200      -0.40691400 
Al      6.21871000       0.08596000       6.25967000       13      -0.13698300      -0.14639700      -0.25279300 
Al      6.15038000       2.12545000       4.29151000       13       0.00583600      -0.30967600      -0.16888700 
Al      4.12110000       4.32285000       8.03015000       13       0.00718000      -0.54494400       1.24220200 
Al      4.23848000       6.24459000       2.02704000       13      -0.21322400      -0.35821000       0.06500500 
Al      6.24166000       3.95723000       2.05929000       13      -0.14839700       0.49239200       0.03187100 
Al      6.26642000       6.37769000       8.24621000       13       0.20490400      -0.51927800       0.17025500 
Al      4.07446000       4.10284000       4.24759000       13       0.23669100       0.12813400      -0.55125700 
Al      4.17771000       6.17795000       6.28121000       13      -0.04489700       0.72495300      -0.90468300 
Al      6.23815000       4.24366000       6.16145000       13       0.17250800      -0.07783600      -0.01180700 
Al      6.19996000       6.19267000       4.00082000       13       0.02131900      -0.03245500       0.31119200 
32
Lattice="8.3 0.0 0.0 0.0 8.3 0.0 0.0 0.0 8.3" Properties=species:S:1:pos:R:3:Z:I:1:force:R:3 energy=-117.64154784 pbc="T T T"
Al      0.05165000       8.29998000       0.05478000       13      -0.16539600       0.16034400       0.03720200 
Al      0.17236000       2.04074000       2.05141000       13      -0.43030200      -0.06817600      -0.32165400 
Al      2.21394000       0.09942000       2.03935000       13      -0.43540800      -0.71307300      -0.16918300 
Al      2.12735000       2.04256000       8.26259000       13      -0.17930900       0.29873800       0.25317500 
Al      0.03197000       8.10018000       3.97314000       13      -0.13260500       0.50752400       0.37144700 
Al      8.26106000       1.99101000       6.24795000       13       0.14504500       0.11013400      -0.11852500 
Al      1.99325000       8.16902000       6.37187000       13       0.44617700       0.94498300      -0.85463300 
Al      2.03276000       2.06895000       4.01741000       13       0.16663100      -0.21349800       0.65693400 
Al      8.23102000       4.15689000       8.18250000       13       0.20584800      -0.07380600       0.14549700 
Al      0.02524000       6.12489000       2.04809000       13      -0.22298000       0.14985100      -0.19005200 
Al      2.01316000       4.32631000       2.08219000       13       0.61650500      -0.33791800      -0.38489100 
Al      1.98918000       6.31730000       8.17753000       13       0.22081100      -0.79076800       0.80219600 
Al      0.03163000       3.94173000       4.00631000       13      -0.32845600       0.50748100       0.46539800 
Al      0.03103000       6.29236000       6.24088000       13      -0.54889900      -0.32960300      -0.26880800 
Al      2.07884000       4.11028000       6.07392000       13      -0.59143900       0.01543600       0.39788700 
Al      1.99132000       6.20951000       4.27350000       13       0.37923500       0.00330900      -0.40782300 
Al      4.18703000       8.11456000       8.29489000       13      -0.14639900       0.73201100      -0.08596500 
Al      4.11138000       1.98298000       2.15449000       13       0.39402900       0.59210800      -0.33620900 
Al      6.30498000       0.08095000       1.99644000       13      -0.09953700      -0.14205900       0.38049800 
Al      6.21527000       2.08292000       0.11367000       13      -0.14358600       0.02945500      -0.50063800 
Al      4.08214000       8.27329000       4.04513000       13       0.26619600      -0.13454600       0.65864800 
Al      4.02135000       2.16972000       6.35932000       13       0.46852700      -0.63584500      -0.40104600 
Al      6.21885000       0.08303000       6.25931000       13      -0.12823800      -0.12685200      -0.26807000 
Al      6.14836000       2.12823000       4.28899000       13       0.00963400      -0.32273600      -0.15424000 
Al      4.11604000       4.32599000       8.02891000       13       0.02400500      -0.56092500       1.25080000 
Al      4.23968000       6.24668000       2.02345000       13      -0.21838400      -0.36357200       0.07587800 
Al      6.24312000       3.95857000       2.06055000       13      -0.15638500       0.48326800       0.02225100 
Al      6.26761000       6.37853000       8.24586000       13       0.20975700      -0.52880500       0.17025100 
Al      4.07559000       4.10347000       4.24866000       13       0.23276600       0.13464500      -0.55820600 
Al      4.17666000       6.17934000       6.28195000       13      -0.03907100       0.72026100      -0.92303400 
Al      6.23888000       4.24300000       6.16278000       13       0.16467700      -0.07352100      -0.01273900 
Al      6.20152000       6.19404000       4.00033000       13       0.01426100      -0.03276600       0.31338400 
32
Lattice="8.3 0.0 0.0 0.0 8.3 0.0 0.0 0.0 8.3" Properties=species:S:1:pos:R:3:Z:I:1:force:R:3 energy=-117.62528239 pbc="T T T"
Al      0.05192000       0.00234000       0.05312000       13      -0.16683700       0.14721400       0.03750700 
Al      0.17558000       2.03891000       2.05128000       13      -0.45614000      -0.06024700      -0.32327200 
Al      2.21063000       0.10299000       2.04119000       13      -0.42277300      -0.73176600      -0.18212700 
Al      2.12697000       2.04497000       8.26419000       13      -0.17320900       0.30104400       0.25216200 
Al      0.03323000       8.09892000       3.97253000       13      -0.15120400       0.51592600       0.36442700 
Al      8.26400000       1.99393000       6.24650000       13       0.12927400       0.09790200      -0.11683100 
Al      1.99490000       8.17102000       6.37165000       13       0.43795700       0.94123000      -0.85191100 
Al      2.02952000       2.06675000       4.01926000       13       0.18043100      -0.21121300       0.66035500 
Al      8.22865000       4.15616000       8.18214000       13       0.21772300      -0.06857900       0.14323400 
Al      0.02311000       6.11825000       2.04841000       13      -0.21522900       0.17050500      -0.19333000 
Al      2.01307000       4.32472000       2.08350000       13       0.62764200      -0.33383600      -0.38703400 
Al      1.99259000       6.31873000       8.17772000       13       0.19449700      -0.78678300       0.80805500 
Al      0.03332000       3.93983000       4.00464000       13      -0.33411100       0.51233000       0.47602400 
Al      0.03275000       6.29118000       6.24059000       13      -0.54900800      -0.32741200      -0.25857900 
Al      2.08124000       4.10868000       6.07351000       13      -0.61057300       0.03065100       0.38889400 
Al      1.98948000       6.21462000       4.27635000       13       0.38842000      -0.02415800      -0.41907900 
Al      4.18743000       8.11326000       8.28860000       13      -0.14977100       0.75046000      -0.05878200 
Al      4.11148000       1.97910000       2.15744000       13       0.39285100       0.60760200      -0.34527000 
Al      6.30109000       0.07888000       1.99745000       13      -0.07942600      -0.13373900       0.37230600 
Al      6.21876000       2.07872000       0.11620000       13      -0.15495100       0.03965700      -0.50172300 
Al      4.07890000       8.27189000       4.04629000       13       0.27273600      -0.13859900       0.65914900 
Al      4.01999000       2.17177000       6.35897000       13       0.48164100      -0.64855200      -0.39455000 
Al      6.21898000       0.08010000       6.25893000       13      -0.11707800      -0.10884700      -0.27750600 
Al      6.14633000       2.13099000       4.28647000       13       0.01701500      -0.33185000      -0.14055700 
Al      4.11097000       4.32908000       8.02777000       13       0.03980400      -0.57099300       1.26366600 
Al      4.24087000       6.24873000       2.01986000       13      -0.22940500      -0.37390200       0.09120800 
Al      6.24457000       3.95994000       2.06182000       13      -0.16555500       0.46866900       0.01348300 
Al      6.26883000       6.37932000       8.24553000       13       0.21033500      -0.53258200       0.17029900 
Al      4.07674000       4.10412000       4.24967000       13       0.22888500       0.14114600      -0.56479000 
Al      4.17561000       6.18078000       6.28260000       13      -0.03093600       0.71460400      -0.94309700 