32
Lattice="8.2 0.0 0.0 0.0 8.2 0.0 0.0 0.0 8.2" Properties=species:S:1:pos:R:3:Z:I:1:force:R:3 energy=-118.02665244 pbc="T T T"
Al      0.04967000       8.18617000       0.06477000       13      -0.19183400       0.28188500      -0.01723400 
Al      0.15230000       2.02658000       2.02659000       13      -0.37417800      -0.07997600      -0.33350800 
Al      2.20792000       0.07674000       2.00305000       13      -0.59061700      -0.65867500      -0.06467700 
Al      2.10426000       2.00366000       8.15343000       13      -0.24542400       0.36916100       0.30430900 
Al      0.02420000       8.00867000       3.92751000       13      -0.05185600       0.58056500       0.47468600 
Al      8.14377000       1.94872000       6.18142000       13       0.28641800       0.22877000      -0.13603900 
Al      1.95920000       8.05877000       6.29656000       13       0.57771000       1.05855500      -1.01461200 
Al      2.02742000       2.05675000       3.95753000       13       0.07807100      -0.29058800       0.70664100 
Al      8.14556000       4.11109000       8.08490000       13       0.17372900      -0.11004500       0.16455600 
Al      0.03757000       6.08994000       2.02083000       13      -0.29065100       0.02783600      -0.19439100 
Al      1.98983000       4.28523000       2.04865000       13       0.62711600      -0.45666000      -0.44476400 
Al      1.94423000       6.23225000       8.07792000       13       0.39621700      -0.89309200       0.85899900 
Al      0.02089000       3.90403000       3.96718000       13      -0.32646900       0.55641600       0.46855500 
Al      0.01969000       6.22385000       6.16714000       13      -0.62156200      -0.39206500      -0.35873900 
Al      2.03844000       4.06989000       6.00215000       13      -0.57160900      -0.07564700       0.51284500 
Al      1.97802000       6.10394000       4.20571000       13       0.34053700       0.18761200      -0.39829600 
Al      4.13436000       8.02370000       0.03241000       13      -0.12577400       0.73132600      -0.25188100 
Al      4.06149000       1.98231000       2.11117000       13       0.40264500       0.59009100      -0.34224300 
Al      6.25310000       0.09313000       1.96608000       13      -0.24265500      -0.15967100       0.42897000 
Al      6.11908000       2.08313000       0.09755000       13      -0.08295800      -0.06805100      -0.57355900 
Al      4.05208000       8.18143000       3.98937000       13       0.25709300      -0.14952900       0.75263000 
Al      3.98038000       2.13125000       6.28562000       13       0.45236300      -0.66918300      -0.51684100 
Al      6.14280000       0.10035000       6.18616000       13      -0.21636100      -0.31010800      -0.21565200 
Al      6.08549000       2.08614000       4.25380000       13      -0.02903000      -0.28644500      -0.31075800 
Al      4.09642000       4.25646000       7.93803000       13      -0.08865400      -0.55070000       1.37803400 
Al      4.18219000       6.15870000       2.02010000       13      -0.21723600      -0.39148700       0.01644700 
Al      6.15918000       3.90124000       2.02803000       13      -0.12346300       0.63009400       0.10197300 
Al      6.18571000       6.29779000       8.14817000       13       0.21215100      -0.58455600       0.19851900 
Al      4.01915000       4.04982000       4.19154000       13       0.31867500       0.11295900      -0.57901700 
Al      4.13288000       6.09702000       6.20133000       13      -0.09952700       0.84650600      -0.91437400 
Al      6.15971000       4.19686000       6.07979000       13       0.24382000      -0.11499400       0.00995200 
Al      6.11723000       6.11079000       3.95365000       13       0.09626900      -0.00514700       0.32850800 
32
Lattice="8.2 0.0 0.0 0.0 8.2 0.0 0.0 0.0 8.2" Properties=species:S:1:pos:R:3:Z:I:1:force:R:3 energy=-118.01222664 pbc="T T T"
Al      0.05003000       8.18843000       0.06310000       13      -0.19194200       0.26511400      -0.00244700 
Al      0.15572000       2.02479000       2.02662000       13      -0.39218800      -0.07912800      -0.34074100 
Al      2.20486000       0.08065000       2.00496000       13      -0.57941500      -0.68995100      -0.08616400 
Al      2.10398000       2.00591000       8.15490000       13      -0.23576000       0.36153000       0.29638500 
Al      0.02551000       8.00715000       3.92670000       13      -0.07011400       0.58885400       0.46771400 
Al      8.14661000       1.95156000       6.18004000       13       0.26320100       0.21412600      -0.13470600 
Al      1.96061000       8.06028000       6.29680000       13       0.57083100       1.06174700      -1.00937900 
Al      2.02412000       2.05467000       3.95904000       13       0.09801100      -0.28544500       0.71679300 
Al      8.14310000       4.11041000       8.08447000       13       0.18243100      -0.10606500       0.16498000 
Al      0.03556000       6.08325000       2.02124000       13      -0.28417500       0.04775600      -0.20006800 
Al      1.98943000       4.28381000       2.05016000       13       0.64160600      -0.45017500      -0.44442000 
Al      1.94749000       6.23409000       8.07769000       13       0.37029900      -0.90335600       0.87451900 
Al      0.02274000       3.90188000       3.96528000       13      -0.33791600       0.56249300       0.48675100 
Al      0.02169000       6.22284000       6.16699000       13      -0.62252100      -0.39122300      -0.34957400 
Al      2.04111000       4.06830000       6.00152000       13      -0.59409600      -0.05756600       0.50547100 
Al      1.97600000       6.10901000       4.20875000       13       0.35910700       0.15991600      -0.40921300 
Al      4.13483000       8.02203000       0.02619000       13      -0.13908500       0.75653400      -0.21959900 
Al      4.06140000       1.97814000       2.11428000       13       0.41209700       0.60807400      -0.35127200 
Al      6.24927000       0.09113000       1.96689000       13      -0.22974500      -0.16220000       0.42917600 
Al      6.12263000       2.07893000       0.10034000       13      -0.09685500      -0.05610800      -0.57741200 
Al      4.04871000       8.18011000       3.99019000       13       0.26797900      -0.15047200       0.75423400 
Al      3.97879000       2.13362000       6.28549000       13       0.46987200      -0.68369600      -0.51206100 
Al      6.14301000       0.09750000       6.18590000       13      -0.20844300      -0.28259100      -0.23158300 
Al      6.08347000       2.08904000       4.25138000       13      -0.02231100      -0.30289500      -0.29247100 
Al      4.09136000       4.25982000       7.93625000       13      -0.07118300      -0.56753700       1.39017400 
Al      4.18348000       6.16094000       2.01648000       13      -0.22729600      -0.40130100       0.03231000 
Al      6.16069000       3.90236000       2.02927000       13      -0.13697600       0.61662200       0.08906400 
Al      6.18682000       6.29885000       8.14775000       13       0.21643800      -0.59037300       0.19773500 
Al      4.02017000       4.05041000       4.19284000       13       0.31106900       0.12130900      -0.59181200 
Al      4.13185000       6.09809000       6.20244000       13      -0.08481900       0.84526100      -0.93966300 
Al      6.16036000       4.19624000       6.08113000       13       0.23456000      -0.11277600       0.01006100 
Al      6.11877000       6.11217000       3.95303000       13       0.08568600      -0.01264700       0.33547400 
32
Lattice="8.2 0.0 0.0 0.0 8.2 0.0 0.0 0.0 8.2" Properties=species:S:1:pos:R:3:Z:I:1:force:R:3 energy=-117.99720722 pbc="T T T"
Al      0.05038000       8.19071000       0.06144000       13      -0.19342900       0.25187600       0.00259200 
Al      0.15910000       2.02300000       2.02663000       13      -0.41395000      -0.07822000      -0.34920400 
Al      2.20174000       0.08450000       2.00686000       13      -0.56591000      -0.71919400      -0.10196900 
Al      2.10369000       2.00820000       8.15639000       13      -0.22888100       0.35908700       0.29134400 
Al      0.02681000       8.00569000       3.92593000       13      -0.09430600       0.59900800       0.46274200 
Al      8.14947000       1.95443000       6.17864000       13       0.24759300       0.20230100      -0.13366300 
Al      1.96206000       8.06188000       6.29694000       13       0.56001500       1.06841400      -1.00938400 
Al      2.02083000       2.05256000       3.96062000       13       0.12395900      -0.28004500       0.72188100 
Al      8.14066000       4.10972000       8.08406000       13       0.19256400      -0.09896100       0.16706800 
Al      0.03353000       6.07656000       2.02164000       13      -0.28037400       0.07519800      -0.20419000 
Al      1.98909000       4.28236000       2.05162000       13       0.65856500      -0.43775100      -0.44668600 
Al      1.95079000       6.23585000       8.07754000       13       0.34522000      -0.90252300       0.88424000 
Al      0.02456000       3.89978000       3.96342000       13      -0.34599500       0.57422600       0.50010000 
Al      0.02364000       6.22179000       6.16681000       13      -0.62532000      -0.38706100      -0.33952000 
Al      2.04374000       4.06670000       6.00094000       13      -0.60927300      -0.04189300       0.50072500 
Al      1.97401000       6.11410000       4.21176000       13       0.37310300       0.13365600      -0.42420800 
Al      4.13529000       8.02044000       0.01994000       13      -0.14269300       0.77174100      -0.19424000 
Al      4.06134000       1.97403000       2.11737000       13       0.41594900       0.63306900      -0.36893200 
Al      6.24542000       0.08911000       1.96775000       13      -0.21583900      -0.16615200       0.42624000 
Al      6.12617000       2.07473000       0.10308000       13      -0.10472600      -0.04012700      -0.58103700 
Al      4.04536000       8.17876000       3.99108000       13       0.27444800      -0.15331900       0.75851700 
Al      3.97724000       2.13593000       6.28532000       13       0.48994300      -0.69611200      -0.50714900 
Al      6.14320000       0.09463000       6.18562000       13      -0.19689200      -0.25991500      -0.24466700 
Al      6.08145000       2.09192000       4.24893000       13      -0.01330500      -0.31567000      -0.27703600 
Al      4.08630000       4.26313000       7.93460000       13      -0.05785200      -0.58443100       1.40575700 
Al      4.18475000       6.16314000       2.01287000       13      -0.22915000      -0.41401800       0.05321500 
Al      6.16220000       3.90353000       2.03052000       13      -0.14752600       0.60493100       0.07416100 
Al      6.18795000       6.29986000       8.14735000       13       0.22158500      -0.59932600       0.19388800 
Al      4.02122000       4.05101000       4.19408000       13       0.30415100       0.12760800      -0.60466600 
Al      4.13082000       6.09923000       6.20348000       13      -0.07513400       0.84162600      -0.96562000 
Al      6.16104000       4.19560000       6.08246000       13       0.22494600      -0.11048100       0.00495300 
Al      6.12032000       6.11355000       3.95245000       13       0.07364300      -0.01579500       0.34154500 
32
Lattice="8.2 0.0 0.0 0.0 8.2 0.0 0.0 0.0 8.2" Properties=species:S:1:pos:R:3:Z:I:1:force:R:3 energy=-117.98156465 pbc="T T T"
Al      0.05071000       8.19302000       0.05977000       13      -0.19601100       0.23472600       0.01036400 
Al      0.16245000       2.02119000       2.02660000       13      -0.44250800      -0.07190500      -0.35367100 
Al      2.19858000       0.08829000       2.00875000       13      -0.55595400      -0.74936900      -0.12432100 
Al      2.10337000       2.01051000       8.15792000       13      -0.22253900       0.35955000       0.28812000 
Al      0.02811000       8.00428000       3.92520000       13      -0.11076900       0.60037300       0.45715500 
Al      8.15236000       1.95732000       6.17723000       13       0.23487800       0.18528200      -0.13967900 
Al      1.96357000       8.06359000       6.29700000       13       0.55177600       1.07244600      -1.00309600 
Al      2.01755000       2.05042000       3.96226000       13       0.14186300      -0.27661500       0.73021000 
Al      8.13823000       4.10902000       8.08366000       13       0.20438000      -0.09826200       0.16644700 
Al      0.03148000       6.06988000       2.02202000       13      -0.27555800       0.10561900      -0.20418800 
Al      1.98881000       4.28087000       2.05305000       13       0.67754200      -0.42742400      -0.44670700 
Al      1.95411000       6.23753000       8.07747000       13       0.32035600      -0.90493600       0.89491100 
Al      0.02636000       3.89773000       3.96161000       13      -0.35362200       0.58013200       0.50851800 
Al      0.02554000       6.22072000       6.16660000       13      -0.62920600      -0.38552900      -0.33229400 
Al      2.04631000       4.06510000       6.00041000       13      -0.62698600      -0.02773700       0.49221100 
Al      1.97206000       6.11921000       4.21472000       13       0.39073700       0.09678000      -0.44051200 
Al      4.13573000       8.01891000       0.01368000       13      -0.15389000       0.79767800      -0.16737300 
Al      4.06131000       1.96998000       2.12042000       13       0.42056600       0.65092900      -0.37751900 
Al      6.24156000       0.08708000       1.96864000       13      -0.19778400      -0.16317600       0.41708100 
Al      6.12971000       2.07053000       0.10576000       13      -0.12451700      -0.01952700      -0.58671800 
Al      4.04203000       8.17741000       3.99204000       13       0.27808800      -0.15728400       0.76160800 
Al      3.97573000       2.13817000       6.28510000       13       0.50618100      -0.70775000      -0.50052100 
Al      6.14337000       0.09173000       6.18532000       13      -0.18334900      -0.23409000      -0.26399600 
Al      6.07943000       2.09477000       4.24645000       13      -0.00179500      -0.33607800      -0.26264700 
Al      4.08123000       4.26639000       7.93308000       13      -0.03982200      -0.60230900       1.41822700 
Al      4.18600000       6.16530000       2.00926000       13      -0.24298500      -0.41507600       0.06160500 
Al      6.16369000       3.90475000       2.03178000       13      -0.15900600       0.59465800       0.06580200 
Al      6.18910000       6.30081000       8.14696000       13       0.22488600      -0.60431400       0.19195400 
Al      4.02230000       4.05161000       4.19527000       13       0.29722300       0.13528600      -0.61477100 
Al      4.12979000       6.10044000       6.20442000       13      -0.06728400       0.83934100      -0.99123300 
Al      6.16174000       4.19496000       6.08380000       13       0.21602500      -0.10694400       0.00193700 
Al      6.12187000       6.11492000       3.95189000       13       0.05749000      -0.01926900       0.34681700 
32
Lattice="8.2 0.0 0.0 0.0 8.2 0.0 0.0 0.0 8.2" Properties=species:S:1:pos:R:3:Z:I:1:force:R:3 energy=-117.96541529 pbc="T T T"
Al      0.05102000       8.19535000       0.05811000       13      -0.19607300       0.21867300       0.01654700 
Al      0.16576000       2.01938000       2.02655000       13      -0.46379300      -0.06489500      -0.35715500 
Al      2.19536000       0.09201000       2.01063000       13      -0.54205400      -0.77893100      -0.14229600 
Al      2.10304000       2.01286000       8.15947000       13      -0.21796300       0.35543700       0.28799500 
Al      0.02940000       8.00292000       3.92452000       13      -0.12778800       0.60698200       0.44932600 
Al      8.15527000       1.96022000       6.17581000       13       0.21512900       0.17071300      -0.14394400 
Al      1.96513000       8.06538000       6.29696000       13       0.53965000       1.07465300      -1.00136100 
Al      2.01429000       2.04826000       3.96396000       13       0.15687800      -0.26918500       0.74441900 
Al      8.13583000       4.10831000       8.08328000       13       0.21621700      -0.09400700       0.16305000 
Al      0.02940000       6.06321000       2.02238000       13      -0.26987000       0.13144400      -0.20814600 
Al      1.98859000       4.27934000       2.05443000       13       0.69158300      -0.42313900      -0.44362300 
Al      1.95747000       6.23913000       8.07748000       13       0.29577700      -0.90107400       0.90397900 
Al      0.02812000       3.89574000       3.95984000       13      -0.36168100       0.58384500       0.52096700 
Al      0.02737000       6.21960000       6.16636000       13      -0.63386900      -0.38054900      -0.32354300 
Al      2.04883000       4.06350000       5.99992000       13      -0.64688400      -0.01323400       0.48403800 
Al      1.97015000       6.12432000       4.21765000       13       0.40544600       0.06774900      -0.45157400 
Al      4.13616000       8.01745000       0.00741000       13      -0.16172700       0.81571400      -0.14283700 
Al      4.06133000       1.96598000       2.12344000       13       0.42533700       0.66221600      -0.38619800 
Al      6.23767000       0.08504000       1.96957000       13      -0.16400900      -0.15787400       0.39730100 
Al      6.13323000       2.06632000       0.10839000       13      -0.13647700      -0.00508800      -0.58565400 
Al      4.03873000       8.17604000       3.99307000       13       0.29360000      -0.15614500       0.75992100 
Al      3.97427000       2.14036000       6.28483000       13       0.51914600      -0.72261700      -0.49631300 
Al      6.14353000       0.08882000       6.18499000       13      -0.17254200      -0.20876100      -0.27481900 
Al      6.07741000       2.09759000       4.24395000       13       0.00414500      -0.34720500      -0.24868200 
Al      4.07616000       4.26959000       7.93168000       13      -0.00736300      -0.61579100       1.44109500 
Al      4.18723000       6.16742000       2.00565000       13      -0.25405300      -0.42246500       0.07372600 
Al      6.16516000       3.90603000       2.03304000       13      -0.16845800       0.57870600       0.04896600 
Al      6.19026000       6.30171000       8.14659000       13       0.23021100      -0.60908700       0.18987300 
Al      4.02341000       4.05223000       4.19641000       13       0.29217800       0.14255400      -0.62381800 
Al      4.12875000       6.10173000       6.20528000       13      -0.05682100       0.83521000      -1.01538700 
Al      6.16246000       4.19430000       6.08514000       13       0.20827900      -0.10317200       0.00234000 
Al      6.12343000       6.11630000       3.95137000       13       0.04996700      -0.02443800       0.35183800 
32
Lattice="8.2 0.0 0.0 0.0 8.2 0.0 0.0 0.0 8.2" Properties=species:S:1:pos:R:3:Z:I:1:force:R:3 energy=-117.94888012 pbc="T T T"
Al      0.05132000       8.19769000       0.05644000       13      -0.19201500       0.20389200       0.02352300 
Al      0.16902000       2.01756000       2.02646000       13      -0.48719300      -0.06353600      -0.36148800 
Al      2.19210000       0.09566000       2.01250000       13      -0.53328200      -0.80131800      -0.15948700 
Al      2.10269000       2.01524000       8.16104000       13      -0.21372200       0.35142200       0.28581900 
Al      0.03068000       8.00161000       3.92387000       13      -0.14550000       0.61436900       0.44141100 
Al      8.15819000       1.96314000       6.17437000       13       0.19949100       0.15087500      -0.14822200 
Al      1.96674000       8.06728000       6.29683000       13       0.52884700       1.07221100      -0.99763400 
Al      2.01104000       2.04608000       3.96574000       13       0.17422600      -0.26149700       0.75311500 
Al      8.13344000       4.10760000       8.08291000       13       0.22743000      -0.09009800       0.16354200 
Al      0.02729000       6.05656000       2.02272000       13      -0.26359400       0.15308600      -0.21512600 
Al      1.98843000       4.27777000       2.05578000       13       0.70430000      -0.41494300      -0.44589500 
Al      1.96085000       6.24065000       8.07757000       13       0.27666800      -0.89690200       0.91030800 
Al      0.02985000       3.89379000       3.95812000       13      -0.36766200       0.58624200       0.53369600 
Al      0.02915000       6.21846000       6.16609000       13      -0.63238700      -0.37816300      -0.31746300 
Al      2.05129000       4.06189000       5.99947000       13      -0.66593800       0.00427800       0.47697100 
Al      1.96827000       6.12944000       4.22054000       13       0.41396800       0.04241800      -0.46320500 
Al      4.13658000       8.01607000       0.00112000       13      -0.17134900       0.83301100      -0.12152600 
Al      4.06138000       1.96205000       2.12642000       13       0.42904900       0.67389600      -0.40009400 
Al      6.23377000       0.08298000       1.97053000       13      -0.12221900      -0.14883400       0.39960200 
Al      6.13674000       2.06211000       0.11097000       13      -0.14961300       0.00805400      -0.58562700 
Al      4.03545000       8.17466000       3.99417000       13       0.30557400      -0.15583200       0.76057600 
Al      3.97285000       2.14247000       6.28452000       13       0.53152400      -0.73195700      -0.48562100 
Al      6.14367000       0.08588000       6.18464000       13      -0.16422300      -0.17985500      -0.29023600 
Al      6.07539000       2.10038000       4.24142000       13       0.00980400      -0.35861700      -0.23252000 
Al      4.07109000       4.27274000       7.93041000       13       0.00670300      -0.63284300       1.45616100 
Al      4.18844000       6.16951000       2.00205000       13      -0.26053200      -0.42333300       0.07843700 
Al      6.16663000       3.90736000       2.03430000       13      -0.17600100       0.56076200       0.03877900 
Al      6.19145000       6.30256000       8.14624000       13       0.23318100      -0.61234200       0.18828500 
Al      4.02454000       4.05287000       4.19749000       13       0.28700900       0.14983100      -0.63235500 
Al      4.12770000       6.10310000       6.20605000       13      -0.04767100       0.82767900      -1.03652400 
Al      6.16319000       4.19364000       6.08647000       13       0.20318600      -0.10025900       0.00170200 
Al      6.12499000       6.11767000       3.95088000       13       0.04282900      -0.02796100       0.35718200 
32
Lattice="8.2 0.0 0.0 0.0 8.2 0.0 0.0 0.0 8.2" Properties=species:S:1:pos:R:3:Z:I:1:force:R:3 energy=-117.93196378 pbc="T T T"
Al      0.05159000       0.00006000       0.05478000       13      -0.19420400       0.18368300       0.02971400 
Al      0.17224000       2.01574000       2.02634000       13      -0.50542000      -0.06117000      -0.36343300 
Al      2.18879000       0.09923000       2.01435000       13      -0.51534800      -0.83166000      -0.18609200 
Al      2.10231000       2.01766000       8.16264000       13      -0.20212600       0.35062500       0.27982900 
Al      0.03194000       8.00036000       3.92327000       13      -0.16589900       0.62320300       0.43173400 
Al      8.16113000       1.96607000       6.17292000       13       0.17923500       0.13308900      -0.14895300 
Al      1.96839000       8.06927000       6.29662000       13       0.51047100       1.07283100      -0.99013000 
Al      2.00780000       2.04387000       3.96758000       13       0.19558200      -0.25230100       0.76061200 
Al      8.13107000       4.10687000       8.08255000       13       0.24162800      -0.08881500       0.16206000 
Al      0.02516000       6.04992000       2.02304000       13      -0.25409500       0.19214300      -0.22034400 
Al      1.98834000       4.27617000       2.05709000       13       0.71929800      -0.40633300      -0.44560200 
Al      1.96426000       6.24208000       8.07774000       13       0.25368400      -0.89197900       0.91562800 
Al      0.03154000       3.89190000       3.95645000       13      -0.38178300       0.59773500       0.54791400 
Al      0.03088000       6.21728000       6.16579000       13      -0.63345000      -0.37336300      -0.30678400 
Al      2.05369000       4.06029000       5.99907000       13      -0.68305500       0.02445600       0.46637300 
Al      1.96643000       6.13456000       4.22338000       13       0.43751800       0.01523800      -0.47391500 
Al      4.13698000       8.01476000       8.19482000       13      -0.17791100       0.85178800      -0.09618400 
Al      4.06147000       1.95817000       2.12937000       13       0.43501700       0.68571900      -0.40640300 
Al      6.22986000       0.08090000       1.97153000       13      -0.09577500      -0.14271100       0.41210700 
Al      6.14024000       2.05791000       0.11349000       13      -0.15866500       0.01918200      -0.59360400 
Al      4.03221000       8.17326000       3.99533000       13       0.31170800      -0.16343700       0.76169100 
Al      3.97148000       2.14453000       6.28417000       13       0.54438300      -0.74007200      -0.47746800 
Al      6.14379000       0.08293000       6.18426000       13      -0.14999000      -0.15326800      -0.30540400 
Al      6.07336000       2.10314000       4.23888000       13       0.02420400      -0.37262300      -0.20963800 
Al      4.06601000       4.27583000       7.92927000       13       0.02145200      -0.65024700       1.46680800 
Al      4.18962000       6.17156000       1.99846000       13      -0.27404900      -0.42448700       0.09261000 
Al      6.16807000       3.90873000       2.03557000       13      -0.18684500       0.55006700       0.02669800 
Al      6.19266000       6.30335000       8.14590000       13       0.23724000      -0.61934200       0.18932200 
Al      4.02569000       4.05351000       4.19851000       13       0.27915600       0.15705900      -0.64247500 
Al      4.12665000       6.10454000       6.20672000       13      -0.03426500       0.81862200      -1.05774800 
Al      6.16395000       4.19296000       6.08781000       13       0.19609400      -0.09708900       0.00068700 
Al      6.12656000       6.11904000       3.95042000       13       0.02680100      -0.03238800       0.36342000 
32
Lattice="8.2 0.0 0.0 0.0 8.2 0.0 0.0 0.0 8.2" Properties=species:S:1:pos:R:3:Z:I:1:force:R:3 energy=-117.91468924 pbc="T T T"
Al      0.05185000       0.00244000       0.05312000       13      -0.19591800       0.16230500       0.03512000 
Al      0.17542000       2.01392000       2.02618000       13      -0.53133200      -0.05121100      -0.36347000 
Al      2.18543000       0.10274000       2.01618000       13      -0.49417800      -0.85663900      -0.20895200 
Al      2.10192000       2.02010000       8.16427000       13      -0.19300400       0.34410700       0.27754700 
Al      0.03319000       7.99917000       3.92270000       13      -0.19088000       0.63112700       0.42575400 
Al      8.16409000       1.96901000       6.17146000       13       0.15916200       0.11556300      -0.15151700 
Al      1.97009000       8.07135000       6.29632000       13       0.49983600       1.07337500      -0.98328900 
Al      2.00458000       2.04164000       3.96949000       13       0.21676600      -0.24629800       0.76264000 
Al      8.12873000       4.10614000       8.08221000       13       0.24999700      -0.08524900       0.16267600 
Al      0.02301000       6.04329000       2.02334000       13      -0.25169200       0.20918700      -0.22213700 
Al      1.98830000       4.27452000       2.05835000       13       0.73149500      -0.39845700      -0.44653900 
Al      1.96769000       6.24344000       8.07800000       13       0.22955800      -0.88698300       0.91939000 
Al      0.03321000       3.89006000       3.95483000       13      -0.38672300       0.60506600       0.55562700 
Al      0.03255000       6.21606000       6.16547000       13      -0.62997900      -0.36988700      -0.29905500 
Al      2.05602000       4.05869000       5.99871000       13      -0.70022200       0.04276400       0.45810400 
Al      1.96462000       6.13968000       4.22618000       13       0.45473600      -0.01542800      -0.48866000 
Al      4.13737000       8.01353000       8.18852000       13      -0.17877500       0.86693500      -0.07388000 
Al      4.06160000       1.95436000       2.13228000       13       0.43955600       0.70154900      -0.41209500 
Al      6.22594000       0.07882000       1.97257000       13      -0.07705900      -0.14614900       0.41975400 
Al      6.14372000       2.05370000       0.11597000       13      -0.16695000       0.03221600      -0.59352800 
Al      4.02899000       8.17185000       3.99657000       13       0.32022700      -0.16652700       0.75905800 
Al      3.97017000       2.14651000       6.28377000       13       0.55636700      -0.74990100      -0.46905800 
Al      6.14391000       0.07996000       6.18386000       13      -0.14204000      -0.12963400      -0.32113500 
Al      6.07135000       2.10586000       4.23632000       13       0.02939100      -0.38933900      -0.18986700 
Al      4.06095000       4.27886000       7.92826000       13       0.04564800      -0.66369800       1.47856900 
Al      4.19078000       6.17357000       1.99488000       13      -0.27746700      -0.42595900       0.10238700 
Al      6.16950000       3.91016000       2.03684000       13      -0.19560100       0.53842700       0.01599700 
Al      6.19389000       6.30409000       8.14558000       13       0.23859100      -0.62423500       0.18846900 
Al      4.02687000       4.05417000       4.19948000       13       0.27053100       0.16595300      -0.65661600 
Al      4.12560000       6.10605000       6.20731000       13      -0.02566500       0.81231500      -1.07904700 