32
Lattice="8.7 0.0 0.0 0.0 8.7 0.0 0.0 0.0 8.7" Properties=species:S:1:pos:R:3:Z:I:1:force:R:3 energy=-113.99043066 pbc="T T T"
Al      8.62687000       0.10457000       0.00759000       13       0.11284400       0.06144900       0.10544900 
Al      8.61703000       2.24204000       2.07812000       13       0.15504200      -0.07560800       0.07780800 
Al      2.30178000       8.37443000       2.19101000       13       0.15412000       0.50069400       0.00247800 
Al      2.21192000       2.25413000       0.10377000       13       0.06043800      -0.29456800      -0.19581600 
Al      8.56331000       0.10377000       4.13745000       13       0.20074300      -0.12495200       0.14446200 
Al      8.64682000       2.10751000       6.44043000       13       0.16418000       0.10056000      -0.02083600 
Al      2.05193000       8.64109000       6.55076000       13       0.06433700       0.08273100      -0.06416000 
Al      2.26609000       2.05421000       4.26988000       13      -0.41540800      -0.02568900       0.12511100 
Al      0.06409000       4.24370000       8.58396000       13      -0.18622700       0.24820900       0.08715700 
Al      0.19029000       6.59007000       2.09446000       13      -0.41972400      -0.23089500      -0.04298500 
Al      2.20894000       4.17532000       2.19636000       13      -0.12122700       0.31976700      -0.06067900 
Al      2.03906000       6.59488000       8.61209000       13       0.22209700      -0.09021000      -0.06273300 
Al      0.00084000       4.37361000       4.19467000       13       0.04969400      -0.09408900       0.19401400 
Al      8.63191000       6.48635000       6.44366000       13      -0.01200600      -0.05361200      -0.00736800 
Al      2.03056000       4.44923000       6.53638000       13       0.18951700      -0.24329700      -0.17373700 
Al      2.16864000       6.34588000       4.22919000       13       0.14773700       0.02435800       0.25056900 
Al      4.54018000       0.02867000       8.68551000       13      -0.34852900       0.09100800      -0.01188600 
Al      4.36962000       2.35402000       2.18238000       13       0.12314700      -0.29372200      -0.22943900 
Al      6.39314000       0.27293000       2.19535000       13       0.03017000      -0.22734900       0.02138600 
Al      6.47227000       2.41482000       8.67022000       13       0.07013000      -0.08618000       0.05178000 
Al      4.19360000       0.01868000       4.49642000       13       0.25550100      -0.20122100      -0.05635800 
Al      4.45477000       2.18488000       6.59564000       13      -0.35797600      -0.25764600       0.09931400 
Al      6.67257000       8.60718000       6.63639000       13      -0.24364400       0.05658900      -0.21355800 
Al      6.46932000       2.10353000       4.48586000       13       0.01501200      -0.17278200      -0.23385100 
Al      4.29165000       4.48642000       8.51403000       13       0.00358500      -0.01359400       0.20472100 
Al      4.44257000       6.40248000       2.16471000       13      -0.03790800      -0.02180200       0.07306200 
Al      6.60299000       4.30624000       2.29274000       13      -0.14133300       0.14201800      -0.15910300 
Al      6.52088000       6.64402000       0.15219000       13       0.18898500      -0.17694300      -0.04886200 
Al      4.27587000       4.09749000       4.38686000       13      -0.06231100       0.40204700      -0.01082900 
Al      4.45903000       6.40465000       6.40683000       13      -0.08771100       0.19278700      -0.07310500 
Al      6.43111000       4.21574000       6.28731000       13       0.29335900       0.38680800       0.28357100 
Al      6.60708000       6.52790000       4.27381000       13      -0.09806600       0.09731900      -0.03951200 
32
Lattice="8.7 0.0 0.0 0.0 8.7 0.0 0.0 0.0 8.7" Properties=species:S:1:pos:R:3:Z:I:1:force:R:3 energy=-113.99640135 pbc="T T T"
Al      8.62451000       0.10700000       0.01129000       13       0.12174500       0.05988700       0.09059700 
Al      8.61422000       2.24061000       2.07857000       13       0.15771800      -0.07151500       0.08221300 
Al      2.30023000       8.37250000       2.19053000       13       0.15511000       0.50020400       0.00224800 
Al      2.21297000       2.25477000       0.10560000       13       0.06285700      -0.29418500      -0.19855000 
Al      8.56528000       0.10620000       4.13523000       13       0.18747100      -0.13577700       0.14939000 
Al      8.64890000       2.11268000       6.44144000       13       0.15385400       0.08566000      -0.02224400 
Al      2.05077000       8.64295000       6.55085000       13       0.05992200       0.08152800      -0.06091300 
Al      2.26498000       2.05463000       4.27146000       13      -0.41150200      -0.03298100       0.11886400 
Al      0.06592000       4.24202000       8.58783000       13      -0.18778700       0.25341900       0.08138600 
Al      0.18808000       6.58870000       2.09053000       13      -0.41505000      -0.23168400      -0.04100000 
Al      2.20739000       4.17547000       2.19781000       13      -0.11759300       0.31384000      -0.05963900 
Al      2.04161000       6.59188000       8.60999000       13       0.21648700      -0.08251400      -0.06140400 
Al      8.69865000       4.37313000       4.19763000       13       0.05129800      -0.09327900       0.18364000 
Al      8.63201000       6.48266000       6.44264000       13      -0.01447400      -0.04812700      -0.00679700 
Al      2.03181000       4.45101000       6.53645000       13       0.19012600      -0.24475800      -0.17072300 
Al      2.16786000       6.34782000       4.22826000       13       0.14451500       0.01535800       0.25012500 
Al      4.54136000       0.03093000       8.68414000       13      -0.34953800       0.09286300      -0.01367800 
Al      4.36979000       2.34850000       2.18082000       13       0.12131500      -0.27902100      -0.21883300 
Al      6.39503000       0.26918000       2.19245000       13       0.02814200      -0.22634500       0.02776500 
Al      6.47299000       2.41519000       8.67162000       13       0.06351200      -0.08798600       0.04686900 
Al      4.19569000       0.01815000       4.49997000       13       0.25162600      -0.19815100      -0.05974900 
Al      4.45420000       2.18876000       6.59296000       13      -0.35862300      -0.26465400       0.10391400 
Al      6.67232000       8.60309000       6.63696000       13      -0.23522600       0.06965000      -0.22015100 
Al      6.46847000       2.10371000       4.48313000       13       0.01209000      -0.17532400      -0.22469000 
Al      4.29500000       4.48929000       8.51480000       13      -0.00374200      -0.02391200       0.20623200 
Al      4.44432000       6.40653000       2.16395000       13      -0.03813000      -0.02493800       0.07632500 
Al      6.60150000       4.30581000       2.29029000       13      -0.14066400       0.13912600      -0.15776800 
Al      6.52225000       6.64511000       0.15064000       13       0.18879500      -0.17835100      -0.04693200 
Al      4.27283000       4.09659000       4.38606000       13      -0.04995300       0.40474000      -0.01307400 
Al      4.45672000       6.40951000       6.40879000       13      -0.08363900       0.18455800      -0.07403400 
Al      6.43362000       4.21430000       6.29056000       13       0.28453800       0.38930600       0.27904900 
Al      6.60544000       6.52180000       4.27283000       13      -0.09415500       0.09891700      -0.03384200 
32
Lattice="8.7 0.0 0.0 0.0 8.7 0.0 0.0 0.0 8.7" Properties=species:S:1:pos:R:3:Z:I:1:force:R:3 energy=-114.00179279 pbc="T T T"
Al      8.62216000       0.10943000       0.01499000       13       0.12629000       0.05762300       0.07930900 
Al      8.61142000       2.23917000       2.07903000       13       0.16437100      -0.06815800       0.08765800 
Al      2.29869000       8.37061000       2.19004000       13       0.15774900       0.49976600       0.00043500 
Al      2.21402000       2.25539000       0.10741000       13       0.06296500      -0.29631300      -0.20005900 
Al      8.56727000       0.10861000       4.13302000       13       0.18609700      -0.13991700       0.15228800 
Al      8.65100000       2.11785000       6.44245000       13       0.14941000       0.07672900      -0.02758800 
Al      2.04962000       8.64481000       6.55095000       13       0.05482500       0.08228200      -0.05749400 
Al      2.26383000       2.05505000       4.27305000       13      -0.40325200      -0.03689500       0.11676200 
Al      0.06773000       4.24036000       8.59171000       13      -0.18382200       0.26312700       0.07169600 
Al      0.18584000       6.58731000       2.08660000       13      -0.41012000      -0.23396500      -0.03381000 
Al      2.20582000       4.17566000       2.19925000       13      -0.11318300       0.31122000      -0.05940500 
Al      2.04417000       6.58888000       8.60788000       13       0.21780000      -0.07185700      -0.05740400 
Al      8.69647000       4.37264000       4.20060000       13       0.05281900      -0.09221900       0.17846200 
Al      8.63210000       6.47897000       6.44162000       13      -0.01083200      -0.03841300      -0.01108900 
Al      2.03306000       4.45276000       6.53650000       13       0.19278600      -0.24528000      -0.16913900 
Al      2.16709000       6.34976000       4.22735000       13       0.14248700       0.01167300       0.24740400 
Al      4.54251000       0.03319000       8.68277000       13      -0.34930800       0.09458900      -0.01437900 
Al      4.36998000       2.34295000       2.17923000       13       0.11234000      -0.26850300      -0.20827000 
Al      6.39692000       0.26540000       2.18956000       13       0.02711000      -0.22846900       0.03154200 
Al      6.47373000       2.41555000       8.67302000       13       0.05830600      -0.09475400       0.03844400 
Al      4.19781000       0.01760000       4.50352000       13       0.24694200      -0.19226300      -0.06252900 
Al      4.45361000       2.19261000       6.59028000       13      -0.36018500      -0.26333400       0.11441300 
Al      6.67205000       8.59900000       6.63751000       13      -0.23125300       0.07700500      -0.22464400 
Al      6.46762000       2.10387000       4.48037000       13       0.01436600      -0.17419500      -0.21891500 
Al      4.29835000       4.49215000       8.51558000       13      -0.00663400      -0.02690600       0.20849500 
Al      4.44606000       6.41058000       2.16319000       13      -0.04418800      -0.02634700       0.07374000 
Al      6.60001000       4.30539000       2.28783000       13      -0.14222600       0.13764600      -0.15755500 
Al      6.52364000       6.64618000       0.14908000       13       0.18822100      -0.18489800      -0.04488700 
Al      4.26980000       4.09573000       4.38526000       13      -0.03781900       0.40820400      -0.01407600 
Al      4.45440000       6.41439000       6.41074000       13      -0.07377800       0.17569800      -0.07385400 
Al      6.43616000       4.21289000       6.29384000       13       0.27467400       0.39094300       0.27508800 
Al      6.60380000       6.51571000       4.27184000       13      -0.09345500       0.10512500      -0.03077400 
32
Lattice="8.7 0.0 0.0 0.0 8.7 0.0 0.0 0.0 8.7" Properties=species:S:1:pos:R:3:Z:I:1:force:R:3 energy=-114.00666793 pbc="T T T"
Al      8.61982000       0.11188000       0.01869000       13       0.13622900       0.05388300       0.06635300 
Al      8.60864000       2.23772000       2.07949000       13       0.16652100      -0.06021900       0.09137000 
Al      2.29717000       8.36877000       2.18955000       13       0.15839400       0.50595700      -0.00041900 
Al      2.21508000       2.25598000       0.10921000       13       0.06549200      -0.29546200      -0.20218500 
Al      8.56927000       0.11101000       4.13082000       13       0.18227100      -0.14412100       0.15301100 
Al      8.65311000       2.12302000       6.44345000       13       0.14154000       0.06831700      -0.02894800 
Al      2.04847000       8.64668000       6.55103000       13       0.05228700       0.07830400      -0.05357100 
Al      2.26265000       2.05547000       4.27465000       13      -0.40036400      -0.03878100       0.11241000 
Al      0.06953000       4.23873000       8.59560000       13      -0.18407200       0.27349300       0.06658500 
Al      0.18356000       6.58590000       2.08267000       13      -0.40764300      -0.23474600      -0.02911000 
Al      2.20424000       4.17587000       2.20069000       13      -0.10651700       0.30632800      -0.05644300 
Al      2.04675000       6.58586000       8.60577000       13       0.21775400      -0.06829800      -0.05402800 
Al      8.69429000       4.37213000       4.20358000       13       0.05384400      -0.08842000       0.17367700 
Al      8.63219000       6.47528000       6.44059000       13      -0.00542200      -0.03154300      -0.00655800 
Al      2.03434000       4.45449000       6.53653000       13       0.19425700      -0.24931600      -0.16542800 
Al      2.16634000       6.35171000       4.22646000       13       0.14109500       0.00841900       0.24609500 
Al      4.54363000       0.03546000       8.68140000       13      -0.35209600       0.09331800      -0.01670300 
Al      4.37017000       2.33738000       2.17763000       13       0.10300300      -0.25867200      -0.20420900 
Al      6.39881000       0.26161000       2.18666000       13       0.02391100      -0.22644800       0.03998500 
Al      6.47447000       2.41590000       8.67442000       13       0.05600400      -0.09660000       0.03255500 
Al      4.19995000       0.01704000       4.50707000       13       0.24135600      -0.18657900      -0.06483700 
Al      4.45298000       2.19644000       6.58762000       13      -0.35908100      -0.26676800       0.11837900 
Al      6.67176000       8.59492000       6.63804000       13      -0.22413700       0.08663100      -0.22940400 
Al      6.46678000       2.10402000       4.47760000       13       0.01404100      -0.17243800      -0.21449800 
Al      4.30170000       4.49501000       8.51638000       13      -0.00678000      -0.02887800       0.20580100 
Al      4.44780000       6.41463000       2.16244000       13      -0.04522200      -0.02453300       0.07084300 
Al      6.59850000       4.30499000       2.28535000       13      -0.14224100       0.13294300      -0.15615300 
Al      6.52505000       6.64723000       0.14752000       13       0.18610200      -0.18758900      -0.04580900 
Al      4.26676000       4.09491000       4.38446000       13      -0.02927400       0.40884900      -0.01631700 
Al      4.45207000       6.41929000       6.41269000       13      -0.07108000       0.16790900      -0.07579900 
Al      6.43871000       4.21151000       6.29714000       13       0.25967800       0.39524700       0.26951000 
Al      6.60215000       6.50962000       4.27085000       13      -0.09110500       0.12009800      -0.02972700 
32
Lattice="8.7 0.0 0.0 0.0 8.7 0.0 0.0 0.0 8.7" Properties=species:S:1:pos:R:3:Z:I:1:force:R:3 energy=-114.01102904 pbc="T T T"
Al      8.61749000       0.11432000       0.02241000       13       0.14268100       0.05385000       0.05465600 
Al      8.60588000       2.23626000       2.07996000       13       0.17410000      -0.05415700       0.08922700 
Al      2.29566000       8.36698000       2.18906000       13       0.15883900       0.51017600      -0.00239800 
Al      2.21614000       2.25654000       0.11098000       13       0.06711900      -0.29432000      -0.20346600 
Al      8.57128000       0.11340000       4.12864000       13       0.17987300      -0.15110800       0.15495700 
Al      8.65524000       2.12821000       6.44445000       13       0.13960400       0.05413700      -0.03355000 
Al      2.04733000       8.64855000       6.55111000       13       0.04862400       0.07326500      -0.05395400 
Al      2.26143000       2.05588000       4.27626000       13      -0.39799300      -0.04291200       0.11141300 
Al      0.07131000       4.23712000       8.59949000       13      -0.17777800       0.27335400       0.06537500 
Al      0.18124000       6.58447000       2.07873000       13      -0.39975700      -0.23639500      -0.02311400 
Al      2.20265000       4.17611000       2.20212000       13      -0.10262600       0.30256400      -0.05634300 
Al      2.04935000       6.58285000       8.60365000       13       0.21382800      -0.05985800      -0.05494900 
Al      8.69211000       4.37163000       4.20658000       13       0.05378500      -0.09103300       0.16737600 
Al      8.63228000       6.47158000       6.43957000       13      -0.00553200      -0.03218700      -0.00596700 
Al      2.03563000       4.45620000       6.53655000       13       0.19242500      -0.25450000      -0.16260400 
Al      2.16560000       6.35365000       4.22559000       13       0.13493700       0.00228400       0.24499600 
Al      4.54471000       0.03774000       8.68003000       13      -0.35336400       0.09874600      -0.02023000 
Al      4.37037000       2.33178000       2.17602000       13       0.09555800      -0.25117500      -0.18882900 
Al      6.40070000       0.25780000       2.18377000       13       0.02376400      -0.22488000       0.04976100 
Al      6.47522000       2.41625000       8.67583000       13       0.05200300      -0.10129000       0.02689300 
Al      4.20212000       0.01646000       4.51061000       13       0.23594300      -0.18056300      -0.06748000 
Al      4.45232000       2.20025000       6.58496000       13      -0.35541300      -0.26686200       0.12261700 
Al      6.67145000       8.59085000       6.63855000       13      -0.21252300       0.09714700      -0.23803600 
Al      6.46593000       2.10415000       4.47481000       13       0.01555900      -0.17324300      -0.21009900 
Al      4.30505000       4.49787000       8.51720000       13      -0.01341300      -0.03273000       0.20174100 
Al      4.44954000       6.41868000       2.16169000       13      -0.04676300      -0.02280500       0.06927400 
Al      6.59698000       4.30459000       2.28286000       13      -0.14069100       0.12856900      -0.14731500 
Al      6.52648000       6.64827000       0.14596000       13       0.18560400      -0.18957700      -0.04754500 
Al      4.26372000       4.09412000       4.38365000       13      -0.01557500       0.41286100      -0.01755700 
Al      4.44974000       6.42419000       6.41462000       13      -0.06655800       0.16048000      -0.07432300 
Al      6.44129000       4.21017000       6.30047000       13       0.24926000       0.39599600       0.26338400 
Al      6.60050000       6.50355000       4.26985000       13      -0.08979600       0.13104500      -0.03023900 
32
Lattice="8.7 0.0 0.0 0.0 8.7 0.0 0.0 0.0 8.7" Properties=species:S:1:pos:R:3:Z:I:1:force:R:3 energy=-114.01492495 pbc="T T T"
Al      8.61518000       0.11677000       0.02613000       13       0.14646900       0.05484700       0.04778500 
Al      8.60313000       2.23480000       2.08044000       13       0.17553000      -0.04867900       0.09029100 
Al      2.29416000       8.36522000       2.18857000       13       0.15969800       0.50755800      -0.00499600 
Al      2.21721000       2.25708000       0.11274000       13       0.06812700      -0.29243100      -0.20217000 
Al      8.57331000       0.11578000       4.12647000       13       0.17610000      -0.15972000       0.16135900 
Al      8.65737000       2.13340000       6.44545000       13       0.13209800       0.04127800      -0.03542300 
Al      2.04619000       8.65043000       6.55119000       13       0.04730300       0.06878000      -0.04651200 
Al      2.26017000       2.05629000       4.27789000       13      -0.39529000      -0.04760500       0.11144800 
Al      0.07307000       4.23553000       8.60339000       13      -0.17184600       0.27551000       0.06437700 
Al      0.17889000       6.58302000       2.07479000       13      -0.39470900      -0.24004000      -0.01629800 
Al      2.20106000       4.17637000       2.20355000       13      -0.09835100       0.29733000      -0.05407700 
Al      2.05197000       6.57982000       8.60153000       13       0.20916600      -0.05135500      -0.04854600 
Al      8.68994000       4.37111000       4.20960000       13       0.05767100      -0.09357100       0.15825000 
Al      8.63237000       6.46788000       6.43854000       13      -0.00777500      -0.02701400      -0.00879500 
Al      2.03694000       4.45788000       6.53656000       13       0.19244700      -0.25735600      -0.16293500 
Al      2.16487000       6.35559000       4.22474000       13       0.13377600      -0.00175100       0.24535800 
Al      4.54576000       0.04003000       8.67866000       13      -0.35528200       0.10138300      -0.01867200 
Al      4.37058000       2.32616000       2.17438000       13       0.08942500      -0.24028600      -0.18404800 
Al      6.40260000       0.25396000       2.18089000       13       0.02362200      -0.22096200       0.05769500 
Al      6.47597000       2.41658000       8.67724000       13       0.04956000      -0.10505600       0.02194000 
Al      4.20430000       0.01586000       4.51414000       13       0.23270700      -0.17674700      -0.07702000 
Al      4.45162000       2.20403000       6.58232000       13      -0.35285500      -0.27160000       0.13155900 
Al      6.67112000       8.58679000       6.63904000       13      -0.20292800       0.10130500      -0.24599000 
Al      6.46508000       2.10427000       4.47199000       13       0.01709300      -0.17537400      -0.20515900 
Al      4.30840000       4.50072000       8.51804000       13      -0.01578900      -0.03353000       0.20280800 
Al      4.45128000       6.42272000       2.16095000       13      -0.04900800      -0.02344200       0.07112800 
Al      6.59545000       4.30421000       2.28036000       13      -0.14355700       0.12727600      -0.14289000 
Al      6.52792000       6.64929000       0.14439000       13       0.18501100      -0.19720800      -0.04228200 
Al      4.26067000       4.09337000       4.38285000       13      -0.00428800       0.41863600      -0.01826000 
Al      4.44740000       6.42912000       6.41656000       13      -0.06427100       0.14810800      -0.07025200 
Al      6.44390000       4.20886000       6.30382000       13       0.24478000       0.39697000       0.25547200 
Al      6.59883000       6.49749000       4.26886000       13      -0.08458900       0.13515500      -0.02616700 
32
Lattice="8.7 0.0 0.0 0.0 8.7 0.0 0.0 0.0 8.7" Properties=species:S:1:pos:R:3:Z:I:1:force:R:3 energy=-114.0182337 pbc="T T T"
Al      8.61288000       0.11923000       0.02985000       13       0.15210100       0.05132700       0.04279000 
Al      8.60039000       2.23334000       2.08093000       13       0.17542900      -0.04337500       0.09412300 
Al      2.29268000       8.36352000       2.18809000       13       0.16010500       0.50739400      -0.01148300 
Al      2.21829000       2.25759000       0.11448000       13       0.07158600      -0.29228300      -0.20579800 
Al      8.57536000       0.11814000       4.12432000       13       0.17232100      -0.16968100       0.16527700 
Al      8.65952000       2.13859000       6.44644000       13       0.12893800       0.03205300      -0.03669600 
Al      2.04506000       8.65232000       6.55126000       13       0.04834400       0.06815900      -0.04414900 
Al      2.25888000       2.05670000       4.27952000       13      -0.39308200      -0.05319800       0.11068900 
Al      0.07482000       4.23397000       8.60730000       13      -0.17046800       0.28039200       0.06150000 
Al      0.17650000       6.58155000       2.07085000       13      -0.39036100      -0.24129400      -0.01678100 
Al      2.19945000       4.17666000       2.20497000       13      -0.09501000       0.29563900      -0.05415700 
Al      2.05461000       6.57679000       8.59941000       13       0.20311800      -0.04424700      -0.04476600 
Al      8.68777000       4.37058000       4.21263000       13       0.06015600      -0.09517100       0.15496900 
Al      8.63246000       6.46417000       6.43751000       13      -0.01273800      -0.01455900      -0.00566400 
Al      2.03827000       4.45954000       6.53655000       13       0.19456700      -0.25937500      -0.15992300 
Al      2.16415000       6.35754000       4.22392000       13       0.12974300      -0.00818200       0.24342700 
Al      4.54679000       0.04233000       8.67728000       13      -0.35767600       0.09456200      -0.01661300 
Al      4.37079000       2.32053000       2.17273000       13       0.08435000      -0.23138200      -0.17368600 
Al      6.40449000       0.25011000       2.17801000       13       0.02016000      -0.21775800       0.06586900 
Al      6.47672000       2.41690000       8.67865000       13       0.04681100      -0.10922300       0.01522300 
Al      4.20651000       0.01525000       4.51767000       13       0.22947400      -0.17212000      -0.08176500 
Al      4.45090000       2.20779000       6.57969000       13      -0.35299100      -0.27263700       0.13824200 
Al      6.67077000       8.58273000       6.63951000       13      -0.19753800       0.10953100      -0.25217200 
Al      6.46424000       2.10437000       4.46916000       13       0.02258300      -0.17267100      -0.19798000 
Al      4.31175000       4.50358000       8.51889000       13      -0.01275000      -0.03163200       0.20347500 
Al      4.45301000       6.42676000       2.16022000       13      -0.05519900      -0.03619200       0.07137600 
Al      6.59390000       4.30384000       2.27784000       13      -0.14074300       0.12479100      -0.13949600 
Al      6.52938000       6.65029000       0.14281000       13       0.18443800      -0.20094900      -0.04233100 
Al      4.25763000       4.09265000       4.38204000       13       0.00702000       0.42080400      -0.02262300 
Al      4.44506000       6.43405000       6.41848000       13      -0.06326900       0.14199800      -0.06926400 
Al      6.44652000       4.20759000       6.30719000       13       0.23413900       0.39946100       0.24241700 
Al      6.59716000       6.49145000       4.26786000       13      -0.08676700       0.14262900      -0.02145400 
32
Lattice="8.7 0.0 0.0 0.0 8.7 0.0 0.0 0.0 8.7" Properties=species:S:1:pos:R:3:Z:I:1:force:R:3 energy=-114.02101658 pbc="T T T"
Al      8.61059000       0.12169000       0.03358000       13       0.15632200       0.04876100       0.03790600 
Al      8.59767000       2.23187000       2.08142000       13       0.17875000      -0.03655700       0.09798200 
Al      2.29121000       8.36186000       2.18760000       13       0.15842600       0.50932900      -0.01156200 
Al      2.21937000       2.25808000       0.11621000       13       0.07036100      -0.28809800      -0.20845300 
Al      8.57743000       0.12048000       4.12218000       13       0.16811100      -0.17768800       0.17448100 
Al      8.66168000       2.14378000       6.44743000       13       0.12498100       0.01813800      -0.03312300 
Al      2.04393000       8.65422000       6.55133000       13       0.04650400       0.06738800      -0.03889400 
Al      2.25756000       2.05710000       4.28116000       13      -0.38697700      -0.06182000       0.10996000 
Al      0.07655000       4.23244000       8.61121000       13      -0.16957100       0.28540400       0.05060900 
Al      0.17408000       6.58005000       2.06691000       13      -0.38252600      -0.23649200      -0.01364800 
Al      2.19784000       4.17698000       2.20638000       13      -0.09211300       0.29043300      -0.05268500 
Al      2.05726000       6.57376000       8.59728000       13       0.20224200      -0.03413200      -0.03800700 
Al      8.68561000       4.37005000       4.21568000       13       0.06059000      -0.09453200       0.15013200 
Al      8.63255000       6.46047000       6.43648000       13      -0.01601400      -0.00916500      -0.00627200 
Al      2.03962000       4.46118000       6.53652000       13       0.19524900      -0.26337400      -0.15673200 
Al      2.16345000       6.35948000       4.22312000       13       0.12841000      -0.01026600       0.24269400 
Al      4.54778000       0.04464000       8.67590000       13      -0.36486800       0.08870900      -0.01208900 
Al      4.37102000       2.31487000       2.17106000       13       0.08130600      -0.22712600      -0.16677600 
Al      6.40639000       0.24624000       2.17514000       13       0.02010100      -0.21640400       0.07354400 
Al      6.47748000       2.41722000       8.68006000       13       0.04308100      -0.11060300       0.00748600 
Al      4.20873000       0.01462000       4.52119000       13       0.22538600      -0.16700800      -0.08598000 
Al      4.45015000       2.21152000       6.57707000       13      -0.35272600      -0.27078300       0.14348700 
Al      6.67040000       8.57869000       6.63996000       13      -0.19008100       0.12078400      -0.25540000 
Al      6.46340000       2.10446000       4.46632000       13       0.02422900      -0.16963000      -0.19646300 
Al      4.31510000       4.50643000       8.51977000       13      -0.01223300      -0.03580900       0.20619500 
Al      4.45473000       6.43080000       2.15950000       13      -0.05374200      -0.04486700       0.07265900 
Al      6.59235000       4.30348000       2.27531000       13      -0.14087300       0.12417200      -0.13756700 
Al      6.53085000       6.65128000       0.14124000       13       0.18468900      -0.20428300      -0.04049600 
Al      4.25459000       4.09198000       4.38123000       13       0.02098800       0.42533100      -0.02308600 
Al      4.44271000       6.43900000       6.42040000       13      -0.05751600       0.12746800      -0.07359500 