378
Lattice="60.2896 0.0 0.0 31.58026658 20.95335 0.0 0.0 0.0 4.92314" Properties=species:S:1:pos:R:3:Z:I:1:force:R:3 energy=-1326.81277948 pbc="T T T"
Al     77.87177000      20.69961000       0.09101000       13      -0.04765600       2.18251400       0.39594700 
Al     76.58972000      20.69723000       2.42288000       13      -0.23469700       3.01977800       2.18035200 
Al     75.17715000      20.84947000       4.84658000       13      -0.85637800       1.78742200       0.58032000 
Al     79.29765000      20.67984000       2.38814000       13      -0.41068600       4.60125200       1.56828700 
Al     80.68356000      20.47536000       4.65926000       13      -1.33862000       9.13508200       3.82056700 
Al     73.42192000      20.61943000       2.50514000       13      -1.40148200      10.05079200       5.30926300 
Al     71.95406000      20.57450000       0.21371000       13       0.04252700       3.43436000      -0.48195600 
Al     82.02440000      20.81448000       2.24429000       13      -0.35425500       3.24533800       0.76440100 
Al     83.40061000      20.83599000       4.74535000       13      -0.15227200       4.18038300       1.20218700 
Al     70.71762000      20.73625000       2.41325000       13      -1.69805700       6.95944700       3.16414400 
Al     37.57574000       0.16284000       4.91498000       13       0.55256200      -0.62575800      -0.23251900 
Al     53.15034000       0.02638000       2.27587000       13      -0.04436100      -0.13536100       0.82875700 
Al     86.34160000      20.57140000       4.71877000       13      -0.96399200      10.07842000       4.78743300 
Al     36.26453000       0.03077000       2.48271000       13      -0.03474800       0.47455700       0.09283200 
Al     66.37992000      20.83418000       4.69522000       13       0.13176600       1.22580900       1.68251200 
Al     87.60829000      20.82625000       2.61757000       13       0.64808900       1.36843900      -0.76599100 
Al     89.18981000      20.63189000       0.04347000       13       0.36537600       9.40192500       4.03530100 
Al     64.90550000      20.80781000       2.54875000       13      -0.67006500       4.38449800       0.74683200 
Al     32.11365000       0.09769000       4.79012000       13      -0.77322200       1.89492000       1.47709800 
Al     58.91962000       0.01669000       2.60533000       13      -0.36587000       0.17323100      -0.52491900 
Al     31.60939000      20.90950000       4.74805000       13       0.44516700       0.67203000       1.13054400 
Al     30.33857000       0.10788000       2.66044000       13       1.73052200      -1.52799500      -0.89327600 
Al     29.07720000       0.13853000       0.04711000       13      -0.18009400      -0.79456800       0.49427200 
Al      2.91423000       0.05821000       0.22157000       13       1.23656300       0.95952100      -2.03994200 
Al      1.54163000       0.23970000       2.06104000       13      -1.08359000      -1.74202900       3.81523600 
Al     27.76429000       0.02906000       2.41215000       13      -1.25901300      -0.51161800       0.51779600 
Al     57.79903000      20.67521000       4.88305000       13      -0.48948900       2.27271300       1.28041200 
Al      4.51257000       0.25168000       2.37726000       13      -0.61358900      -1.60684100       0.66826400 
Al     37.38299000      20.91309000       0.12817000       13      -0.05160300      -0.02587700      -0.91426600 
Al     56.38158000      20.92589000       2.53299000       13      -0.10078300       0.47642800      -0.26578400 
Al     23.32556000       0.20630000       4.81069000       13      -0.03696300       0.15205000       0.27942900 
Al      7.32485000       0.01018000       2.23547000       13       0.06653800       1.39115500       1.52208400 
Al      8.88242000       0.12016000       4.91477000       13       0.02000200      -0.41655000       0.06654600 
Al     53.40008000      20.83904000       2.39290000       13       0.40717200       6.25649000       2.66436100 
Al     51.94286000      20.94601000       4.89081000       13       0.41470100       1.67343400       1.40468700 
Al     10.34561000       0.40393000       2.48119000       13       0.30689600      -1.96984000      -1.13209900 
Al     11.78363000       0.12683000       4.62718000       13      -0.59153400       0.00148600       2.25521700 
Al     18.95502000       0.16303000       2.82549000       13      -0.31461500      -0.36851400      -1.82718600 
Al     17.49315000       0.21023000       4.90979000       13       0.10336000      -0.11654200       1.27724800 
Al     13.00970000       0.34742000       2.56779000       13       1.58111200      -1.40958700      -1.41424800 
Al     14.75565000       0.04359000       0.20228000       13      -0.65006200      -0.10900800       0.48509400 
Al     15.86172000       0.28103000       2.78457000       13       0.40779900      -0.60446100      -0.85006700 
Al     46.08542000       1.99806000       3.29495000       13       0.68175600       0.44766700      -0.05971800 
Al     44.72748000       1.86240000       0.82628000       13       1.76680200       1.17323300      -0.08549600 
Al     43.23065000       2.17604000       3.14209000       13       0.84624300      -1.14373900       1.68766900 
Al     47.87849000       2.00551000       0.76769000       13      -2.14221400      -0.06636300      -0.02937500 
Al     49.18903000       1.96437000       3.31412000       13      -0.73050900       0.38680400      -0.12867800 
Al     42.16207000       1.91288000       0.84370000       13      -1.89309700      -0.76465500      -1.12613100 
Al     40.59998000       2.29327000       3.09446000       13      -0.09061200      -1.92515500       1.06036700 
Al     50.26993000       2.27929000       0.86055000       13       2.10629500      -0.29651900      -0.13445000 
Al     39.17957000       2.27297000       0.71400000       13       0.62000900      -0.22882200      -0.16454800 
Al     51.91584000       2.26596000       3.17285000       13      -0.29486600      -0.07243000       0.62167300 
Al     38.01687000       2.30507000       3.10030000       13      -0.83457500      -0.52734700       0.78633500 
Al     53.37648000       2.11680000       0.93506000       13      -0.26786200       0.94747800      -1.85306700 
Al     36.48979000       2.14590000       0.95951000       13      -0.98114500       1.15137800      -0.24862200 
Al     34.96592000       2.39531000       3.56352000       13       0.22220100      -0.77487800      -0.12807700 
Al     54.65419000       2.15894000       3.14757000       13       0.70243200       0.02671200       1.10409200 
Al     60.21123000       2.28443000       3.32717000       13       0.84194500       0.29556100       0.19791400 
Al     32.09450000       2.42108000       3.28095000       13      -0.14812600      -0.22143400       0.45164200 
Al     33.69203000       2.25930000       1.22303000       13      -0.22620200      -0.01256000      -1.17799800 
Al     56.18385000       2.17443000       0.65637000       13      -0.57929000      -0.15831300       0.65111200 
Al     57.57937000       2.26948000       3.38810000       13      -0.77961000      -0.14149700      -0.83475300 
Al     63.31959000       2.30108000       3.14998000       13      -0.82526300       0.01744600       1.15181800 
Al     61.55437000       2.24902000       0.94046000       13       0.44170300       1.65004600      -1.38236100 
Al     29.21511000       2.13114000       3.30498000       13       0.28730300       1.92862000       1.76367900 
Al     30.67180000       2.18842000       0.83806000       13       0.26998300       0.60495900       0.02812800 
Al     58.91973000       2.15455000       0.87067000       13      -0.51135300       0.14759200      -0.02737200 
Al      4.49712000       2.50146000       0.97107000       13      -0.48553700      -0.16604600      -1.18561100 
Al      5.67835000       2.20233000       3.35426000       13       1.31889900       1.00736300       0.49360800 
Al     27.81007000       2.42026000       1.39291000       13      -0.90990300      -0.39492400      -3.22142300 
Al     26.37763000       2.51333000       3.42110000       13      -0.84294300      -0.65720200       1.20110500 
Al     24.92971000       2.32571000       0.92785000       13       0.68649000      -0.74517100      -0.82388400 
Al      7.22708000       2.34348000       0.74020000       13       0.52493700      -0.21760900       0.23639700 
Al     23.39528000       2.72820000       2.99791000       13      -0.19365300      -2.41439400       1.94282200 
Al      8.91994000       2.15209000       3.20621000       13      -1.40547000       1.93245000       0.23167000 
Al     22.08034000       2.42964000       0.65234000       13      -1.00148100      -0.37528500      -0.20243600 
Al     20.35770000       2.54094000       3.16845000       13       0.65266000       0.05651600       0.69358500 
Al     10.30747000       2.44784000       0.71526000       13       0.14415800      -0.01810700       0.01955100 
Al     12.06659000       2.56209000       2.97323000       13      -1.67852700       1.17823800       1.07620400 
Al     19.02697000       2.38873000       0.94187000       13      -0.12212900       0.14047800      -0.69242100 
Al     17.43312000       2.49279000       3.35375000       13       0.34656500       0.53618700       0.19975400 
Al     13.32486000       2.33896000       0.76282000       13      -0.39685600       0.52455700       0.18029800 
Al     14.58276000       2.43400000       3.54182000       13       1.09069100       0.80391200      -0.91946500 
Al     16.15475000       2.35787000       0.95168000       13      -0.13319300       0.71924900       0.01203600 
Al     45.16532000       4.53987000       3.86509000       13      -1.53642900      -1.64803200       1.61717300 
Al     46.18036000       4.59004000       1.52985000       13       0.93424200      -1.81934200      -0.82925100 
Al     47.73257000       4.55220000       3.95396000       13       0.74297000      -1.27001600       0.26962400 
Al     43.42307000       3.95381000       1.48234000       13       1.27662600       2.65082200       0.15730400 
Al     42.00411000       4.29283000       4.33786000       13       0.18962000       0.76984500      -1.01208800 
Al     48.83948000       4.43999000       1.65661000       13       0.94096900       0.20860800      -0.51681200 
Al     40.85819000       4.32362000       1.81047000       13      -0.84619300       1.72076300      -0.77205700 
Al     50.45253000       4.39677000       4.16332000       13      -0.05901000       0.45517700      -0.13337700 
Al     39.28486000       4.47097000       4.10347000       13      -0.14142300       0.98214000       0.32427500 
Al     51.77520000       4.61303000       1.73632000       13      -0.02086300      -0.14308100      -0.25222800 
Al     61.95750000       4.41433000       4.40996000       13      -1.22189200       0.05904000      -1.33064300 
Al     37.55719000       4.57723000       1.72425000       13       3.32655400      -0.26598000      -1.04974800 
Al     36.49415000       4.51060000       4.06078000       13       0.03528600       0.44435100       1.12615600 
Al     60.18165000       4.52060000       1.76044000       13       0.30120900       0.36219700      -0.22219200 
Al     53.28655000       4.50906000       4.22894000       13      -0.29432000      -0.47320200       0.08105300 
Al     64.68969000       4.73793000       4.18444000       13       0.82788000      -1.87634500       0.06076500 
Al     63.04725000       4.53497000       1.74509000       13       0.43519500      -0.13550000       0.49082900 
Al     33.71456000       4.61986000       4.10960000       13      -0.32271000       0.64707800       0.70032100 
Al     35.22665000       4.54026000       1.71806000       13      -2.65425800       0.30851200      -0.60301200 
Al     30.73567000       4.59935000       4.25682000       13       0.19276700      -0.27550400       0.03867400 
Al     32.31481000       4.76303000       1.83082000       13       0.10443300      -0.73945500      -0.73415400 
Al     27.88515000       4.74429000       4.04546000       13      -0.80212500      -1.62605800       1.25607900 
Al     66.15422000       4.62448000       1.64755000       13      -0.06857200       0.34638900       0.31183200 
Al     54.71127000       4.52427000       1.95086000       13      -0.39228700      -0.13297500      -1.07244100 
Al     29.17010000       4.46687000       1.80872000       13       1.53065700       0.31607900      -0.84279000 
Al     56.14975000       4.74262000       4.18825000       13      -0.51831800       0.18092000       0.01067300 
Al      7.29616000       4.51741000       4.10137000       13       0.08491400       0.16353600       0.04185400 
Al     24.86743000       4.80727000       4.06994000       13       1.07400100      -0.06189100       0.04268000 
Al     26.29818000       4.61379000       1.69694000       13      -0.02134800       0.69649100      -0.47809300 
Al     58.76444000       4.54167000       4.13055000       13       0.84759900       0.60748100       0.04529800 
Al     57.46674000       4.59496000       1.56634000       13      -0.18558300      -0.18194500       0.52446300 
Al     23.53081000       4.47379000       1.42388000       13      -0.04457700       2.57742900      -0.25640800 
Al      8.66123000       4.66198000       1.67964000       13       0.43386400      -0.16588000      -0.07878000 
Al     22.25130000       4.83165000       4.06701000       13      -1.04625700      -0.17290600      -0.35167000 
Al     10.25615000       4.57062000       4.08722000       13      -0.06246600       0.51740900      -0.29472900 
Al     20.50270000       4.79941000       1.50992000       13       0.14053400      -0.48275400       0.42156400 
Al     19.15390000       5.01391000       4.07469000       13       0.11715200      -1.48051700       0.35875600 
Al     11.79226000       4.88852000       1.57382000       13      -0.40906100      -1.58895300       0.84778400 
Al     13.24961000       4.83189000       4.10565000       13      -0.01594500      -0.28075800      -0.01436000 
Al     17.47805000       4.85368000       1.70870000       13       0.89102800      -1.22209800       0.87633000 
Al     16.35567000       5.02389000       4.41398000       13      -1.19806800      -1.29248100      -1.45025600 
Al     14.55790000       5.02185000       1.66150000       13       0.95786900      -2.01114200       0.31691200 
Al     46.61247000       6.56776000       4.78704000       13      -0.97227200       1.82882500       0.45139900 
Al     44.79409000       6.37942000       2.37414000       13      -0.86117300       2.69319100      -0.35100600 
Al     43.40613000       6.79756000       0.04012000       13       0.73120800      -0.47786200      -0.72807000 
Al     47.92743000       6.94056000       2.36646000       13      -1.56267700      -0.23927500      -0.14344200 
Al     42.02324000       6.94079000       2.25497000       13       0.26020600      -0.40438800       0.92086200 
Al     49.28372000       7.04692000       4.84262000       13      -2.62102800      -0.78757400       0.07950700 
Al     59.91263000       7.10308000       4.89182000       13       0.96875000      -2.07902100      -0.06208700 
Al     63.26027000       6.66084000       4.81909000       13      -1.52825300       0.96385400       1.58675600 
Al     40.80479000       6.91205000       4.84449000       13      -0.41561800      -0.43771200      -0.15678400 
Al     61.70503000       6.75186000       2.42864000       13      -0.75596200       0.26940000      -0.11492000 
Al     66.01964000       6.99017000       0.09260000       13       0.05519700      -0.39531100       0.12120500 
Al     64.35790000       6.68688000       2.64165000       13       1.27452100       1.27724800      -1.83573200 
Al     67.51945000       6.82673000       2.68267000       13      -0.14062500       0.29895500      -0.28883200 
Al     50.37735000       7.11789000       2.46413000       13       0.67210600      -0.72464800      -0.82856100 
Al     26.93211000       7.21230000       4.87366000       13      -2.23902100      -1.18792800       1.38655600 
Al     69.11034000       7.04681000       0.19215000       13      -0.99754800      -1.14451800      -0.76715400 
Al     39.27926000       7.05291000       2.61176000       13       0.97485900      -1.68688300      -0.57677900 
Al     29.25719000       6.77651000       4.60512000       13       2.74846500       0.71183400       1.48956300 
Al     38.00259000       7.06263000       0.21421000       13       0.33466000      -0.44154400      -0.96197500 
Al     23.70111000       7.20429000       4.70398000       13       0.21113400      -0.38986900       1.20437800 
Al     32.13649000       6.95367000       0.04647000       13       1.23948800      -0.95746000      -1.25654500 
Al     28.06410000       6.65288000       2.43863000       13      -0.33776100       0.97416600      -1.79159000 
Al     24.95933000       7.06545000       2.50699000       13       0.78219500      -0.41747400      -1.11959200 
Al     51.59802000       6.88792000       4.75412000       13       1.99429300      -0.38500100       0.88124100 
Al     35.22560000       7.10927000       4.76414000       13       0.08176600      -0.71805400       0.13029500 
Al     31.02861000       6.89046000       2.33307000       13      -1.42967300       0.14741600       1.00801100 
Al     36.62195000       6.82071000       2.36895000       13      -1.03060500       1.24134300       0.89502900 
Al     33.63032000       7.27271000       2.45729000       13       2.30316400      -3.86675500      -0.72030100 
Al     22.09404000       7.02210000       2.43415000       13       0.63708400      -0.49801900      -0.23206000 
Al     70.42345000       7.09213000       2.56363000       13      -0.28815800      -1.32907400       0.65386100 
Al     53.03542000       6.91463000       2.41274000       13       0.22904400       0.35479400       0.77498300 
Al     54.17371000       6.77572000       0.19489000       13       1.33654300       0.56432700      -1.09958200 
Al     20.95575000       6.97164000       0.07434000       13      -0.71096100       0.58123100      -0.27512100 
Al     57.37969000       7.47683000       0.15880000       13      -1.89592000      -1.64458400      -1.55234900 
Al     55.89481000       6.88067000       2.21303000       13       0.18503400       0.65583000       1.17344400 
Al     58.77152000       6.91555000       2.24066000       13      -0.11300600      -0.33676100       1.60909500 
Al     11.59101000       6.88377000       0.23993000       13      -0.14172800       0.93338800      -1.58520800 
Al     19.32425000       7.07180000       2.67299000       13      -0.11213000       0.92639900      -0.80111900 
Al     17.69561000       7.00981000       0.21533000       13       0.65811700       1.74038300      -0.24274600 
Al     13.27684000       6.98741000       2.42245000       13      -0.53369000       1.59335000       1.14927300 
Al     14.57266000       7.02058000       0.12579000       13       0.53991100       1.29447300      -1.01677100 
Al     16.46141000       7.03321000       2.53545000       13      -0.83960600       1.21519900       0.66205300 
Al     46.14540000       8.96093000       3.18614000       13       2.05064500      -0.16903200      -0.23296600 
Al     44.84740000       9.05028000       0.68636000       13       0.86685200      -2.89678100      -0.11545500 
Al     65.85717000       9.20246000       3.23616000       13      -0.47360500      -0.78243200       0.74657300 
Al     62.78847000       9.12648000       3.38531000       13       0.82738900      -0.09850200      -0.82556400 
Al     43.84714000       9.07337000       3.28990000       13      -2.16475400      -0.21483700      -0.67504400 
Al     60.15831000       8.97059000       3.35350000       13      -0.67025500       0.99914600      -2.04006100 
Al     68.63521000       9.30859000       3.15751000       13       0.63458800      -0.04710900       0.84075600 
Al     64.08887000       8.97987000       0.81521000       13       0.31264500       0.32245500       0.48828900 
Al     67.30056000       9.09135000       0.90379000       13       0.10288400       0.40898800      -0.68015700 
Al     61.22637000       9.22009000       0.62635000       13       1.45071400      -0.03410000       2.17899200 
Al     47.34622000       9.25311000       0.68194000       13       0.28794500      -0.04361700      -0.30499600 
Al     23.90132000       9.40194000       3.18647000       13       0.65848200      -0.55339100       0.20700100 
Al     70.32895000       9.08454000       0.88747000       13       0.06709800       1.47014600      -0.45904800 
Al     27.07924000       8.89125000       3.15447000       13      -0.48121900       2.25007600      -0.68666200 
Al     21.10156000       9.23354000       3.32867000       13      -0.25161200       0.31599100      -0.72034000 
Al     22.39840000       9.27899000       0.78565000       13       0.05634200       0.17686900       0.38978100 
Al     25.58317000       9.30616000       0.86064000       13      -0.28031600       0.41029500      -0.23275900 
Al     71.66082000       9.20286000       3.20712000       13       0.50679900       0.47034900       0.04493000 
Al     29.80617000       9.21785000       3.31747000       13       0.30826300       0.20893300      -0.74996800 
Al     28.61131000       9.41467000       0.76110000       13      -2.41225600      -0.87611000       0.04370200 
Al     32.79818000       9.24179000       2.96828000       13      -1.97885500       3.59897800       1.69264400 
Al     31.02579000       9.02438000       0.75727000       13       1.13160100       1.07184600       0.23894900 
Al     42.46876000       9.55647000       0.86004000       13       0.86881100      -3.58304800      -1.19024500 
Al     19.46813000       9.43041000       0.47733000       13       1.40579000      -1.48856700       3.52111500 
Al     48.79134000       9.42363000       3.05321000       13      -0.31189000      -0.49319100       1.45938400 
Al     41.28056000       9.36977000       3.21271000       13      -0.54573200      -0.52794700       0.18277500 
Al     35.56992000       9.66260000       3.30128000       13      -0.17476300      -0.55180400      -0.12249900 
Al     34.07923000       9.25810000       0.68252000       13      -0.44617700       0.98632500      -0.25948100 
Al     38.43755000       9.20459000       3.28573000       13      -0.75222600       1.48288300       0.24988800 
Al     36.81935000       9.41485000       0.86005000       13       0.40132100      -0.43612700      -0.06758500 
Al     39.86863000       9.26750000       0.77052000       13      -0.44898800      -0.99407600       0.21337400 
Al     49.96219000       9.29036000       0.86860000       13       1.33350300       0.82063100      -1.04281900 
Al     51.62355000       9.22268000       3.40644000       13      -0.10247900       0.96667900      -0.67241600 
Al     18.14135000       9.42402000       3.55452000       13      -1.70600400      -1.31928400      -2.42646900 
Al     73.16353000       9.17730000       0.54219000       13       0.72307400       0.12954600       0.75548900 
Al     57.40841000       9.46915000       3.26766000       13      -1.18866700      -1.10746600       0.14383300 
Al     54.37600000       9.20518000       3.64286000       13       1.13393300      -0.15707000      -1.83751700 
Al     58.62538000       9.39741000       0.92086000       13       0.39172300       0.46540900       0.35011100 
Al     52.98115000       9.41758000       0.69343000       13      -1.12236700      -0.53148500       1.71149400 
Al     55.81872000       9.66930000       1.01381000       13      -0.94964600      -1.90998200      -0.13041300 
Al     14.90298000       9.47632000       3.12456000       13      -0.19285800      -2.39700000       0.10005900 
Al     16.25013000       9.57536000       0.97313000       13       0.87893900      -3.61893900      -1.93661100 
Al     43.15413000      11.60343000       4.06430000       13       0.40348200      -0.66171300      -0.55077500 
Al     44.93797000      11.24018000       1.38377000       13       0.34206500       2.70055500       1.06553400 
Al     67.14408000      11.54000000       3.89151000       13      -0.12929300       0.17804800       0.64490000 
Al     63.99334000      11.47963000       4.33535000       13       0.64841700       0.23079700      -0.19536000 
Al     61.30666000      11.31453000       4.04814000       13      -0.19581500       0.89435900       0.37410800 
Al     65.55669000      11.13647000       1.61986000       13       0.03264300       1.31191400      -0.37684100 
Al     62.72496000      11.65143000       1.90534000       13       0.40753800      -0.93540600      -1.08155100 
Al     68.58758000      11.50767000       1.46302000       13      -1.62699600       0.16836000      -0.05248800 
Al     70.20760000      11.55988000       4.08809000       13      -2.37511800      -0.19797100      -0.55680300 
Al     59.91098000      11.58871000       1.60635000       13       0.08677200      -0.13097900       0.57115400 
Al     19.91295000      11.48297000       4.08109000       13       0.22316600       1.30660200      -0.90530200 
Al     22.75149000      11.46407000       4.10296000       13       0.34143600       0.83951200      -0.77020300 
Al     21.36875000      11.80360000       1.23235000       13      -0.72119700      -1.08696600       2.46924800 
Al     46.82873000      11.76491000       3.77799000       13      -1.00912700      -2.75034400       1.47752600 
Al     41.69860000      11.52428000       1.41987000       13      -1.26883600       3.86092200       2.25710000 
Al     18.47933000      11.41941000       1.89284000       13       1.00682600       0.73314100      -0.98916300 
Al     25.82835000      11.78273000       4.19525000       13      -0.71391800      -1.52003300      -0.84826000 
Al     24.08364000      11.51432000       1.70341000       13       0.52990700       0.41843000      -0.40653500 
Al     70.99628000      11.70295000       1.59295000       13       1.97291700       0.01167700       0.70780400 
Al     77.46238000      11.70564000       4.15264000       13       0.45668800       0.03718700       0.19324600 
Al     27.05986000      11.79090000       1.46784000       13       0.54067500      -1.03521800       1.47249500 
Al     28.64739000      11.70597000       4.04057000       13      -0.24051800       0.03870100      -0.95458400 
Al     40.24492000      11.44733000       4.22660000       13      -0.61584900       1.37979300      -1.29294900 
Al     31.40226000      11.56359000       4.24435000       13       0.25808100      -0.85239100      -1.17652000 
Al     29.87935000      11.43173000       1.39751000       13       0.66088000       1.32197200       1.70172900 
Al     72.58950000      11.46594000       4.34922000       13      -0.76603200       0.46713300       0.41972900 
Al     34.00471000      11.91747000       4.11965000       13       2.11218200      -2.29145800      -0.76590600 
Al     48.20049000      11.58226000       1.69187000       13      -0.29945100       0.11197000      -1.69525200 
Al     32.86035000      11.83150000       1.64813000       13      -0.12678700      -0.36381400       0.24609500 
Al     37.24755000      11.61446000       4.07946000       13       0.12576400       0.70445300      -0.37692000 
Al     38.73717000      11.41647000       1.42877000       13      -0.53547700       1.21073600       1.14260300 
Al     76.31409000      11.70563000       1.60140000       13      -0.63381000       3.58839700       0.96290400 
Al     35.76377000      11.73414000       1.55004000       13      -0.29825900       0.32214400       0.34171100 
Al     49.61125000      11.71338000       3.94224000       13       0.68862000      -0.40608200       1.02844800 
Al     58.53724000      11.43861000       4.24437000       13       0.09234900       1.25801000      -0.70057800 
Al     55.64789000      11.74240000       4.23640000       13      -0.11052100      -0.49225100      -1.03859300 
Al     52.91782000      11.85716000       3.81287000       13      -0.72146600      -0.58619100       0.31551900 
Al     51.00306000      11.61828000       1.63591000       13       0.85481400       0.22084800      -0.30098200 
Al     57.09665000      11.60314000       1.66102000       13       0.34967400       1.63212600       0.80729500 
Al     54.00169000      11.62727000       1.42100000       13       0.15758700       1.00233300       0.67546400 
Al     74.84812000      11.65325000       3.93962000       13       3.53104900       2.02196300       4.59921500 
Al     73.86765000      11.72659000       2.02386000       13      -3.14822400       0.24221800      -4.42547100 
Al     45.04300000      13.76373000       4.77925000       13      -0.07488200      -0.04515300       1.64832600 
Al     43.59705000      13.65965000       2.46630000       13      -0.09940900       0.42768300      -0.08628900 
Al     42.39301000      13.80559000       0.15725000       13      -1.27161300       1.24968100      -0.27431000 
Al     46.34752000      13.83675000       2.71462000       13       0.22081100       1.71833100      -2.79162300 
Al     62.53255000      14.14787000       0.08702000       13       0.45373500      -0.81147100       0.07441900 
Al     65.34323000      13.97086000       0.12774000       13       0.10865400      -0.62799400      -0.13701700 
Al     59.90287000      13.64947000       4.79493000       13      -0.50866300       0.90917200       0.40687200 
Al     63.98447000      13.87583000       2.53810000       13       0.51798600       0.13085600       0.16126500 
Al     61.23826000      13.69270000       2.50203000       13      -0.29187800       1.09854400      -0.09292500 