24
Lattice="4.942536 0.0 0.0 0.0 2.853575 0.0 0.0 0.0 27.959197" Properties=species:S:1:pos:R:3:Z:I:1:force:R:3 energy=-89.85786908 pbc="T T T"
Al      2.47127000       1.42679000       0.00000000       13       0.00127000      -0.00019200       0.00031900 
Al      0.00000000       0.00000000       0.00000000       13       0.00125700      -0.00019200       0.00031100 
Al      3.29503000       0.00000000       2.32992000       13       0.01039100      -0.00013600       0.05109000 
Al      0.82376000       1.42679000       2.32992000       13       0.01039100      -0.00013600       0.05109500 
Al      4.11878000       1.42679000       4.65988000       13      -0.01066700       0.00016900      -0.01827500 
Al      1.64751000       0.00000000       4.65988000       13      -0.01066300       0.00017000      -0.01828100 
Al      2.47127000       1.42679000       6.98980000       13       0.00000500      -0.00000100      -0.00042900 
Al      0.00000000       0.00000000       6.98980000       13      -0.00001200      -0.00000000      -0.00042200 
Al      3.29502000       0.00000000       9.31972000       13       0.01067900      -0.00016700       0.01794900 
Al      0.82376000       1.42679000       9.31972000       13       0.01063900      -0.00016700       0.01794300 
Al      1.64751000       0.00000000      11.64967000       13      -0.01038600       0.00013600      -0.05066300 
Al      4.11878000       1.42679000      11.64967000       13      -0.01040300       0.00013600      -0.05067200 
Al      2.47127000       1.42679000      13.97960000       13      -0.00125300       0.00019200       0.00037700 
Al      0.00000000       0.00000000      13.97960000       13      -0.00127500       0.00019200       0.00038500 
Al      1.64752000       0.00000000      16.30952000       13      -0.01039700       0.00013800       0.05112100 
Al      4.11878000       1.42679000      16.30952000       13      -0.01038300       0.00013800       0.05112100 
Al      3.29503000       0.00000000      18.63947000       13       0.01066900      -0.00016800      -0.01819500 
Al      0.82376000       1.42679000      18.63947000       13       0.01066200      -0.00016900      -0.01819800 
Al      2.47127000       1.42679000      20.96940000       13       0.00001000       0.00000100      -0.00040000 
Al      0.00000000       0.00000000      20.96940000       13      -0.00000500       0.00000100      -0.00039800 
Al      4.11878000       1.42679000      23.29932000       13      -0.01066300       0.00016600       0.01786300 
Al      1.64751000       0.00000000      23.29932000       13      -0.01065900       0.00016600       0.01786200 
Al      3.29502000       0.00000000      25.62927000       13       0.01040800      -0.00013700      -0.05073900 
Al      0.82376000       1.42679000      25.62927000       13       0.01037600      -0.00013700      -0.05074200 
24
Lattice="4.942536 0.0 0.0 0.0 2.853575 0.0 0.0 0.0 27.959197" Properties=species:S:1:pos:R:3:Z:I:1:force:R:3 energy=-89.85754088 pbc="T T T"
Al      2.47169000       1.42886000      27.95697000       13       0.00710000      -0.00221300       0.01097200 
Al      0.00334000       2.85183000      27.95861000       13      -0.00817800       0.00697300       0.00056100 
Al      3.29223000       0.00373000       2.33110000       13       0.02235400      -0.00423700       0.03449900 
Al      0.82358000       1.42885000       2.33066000       13       0.00271900       0.00207000       0.04156300 
Al      4.12009000       1.42525000       4.65842000       13      -0.00476800       0.00531000      -0.01306400 
Al      1.65025000       0.00264000       4.65792000       13      -0.02095100      -0.00415300      -0.00143200 
Al      2.47262000       1.42809000       6.98946000       13      -0.01712600      -0.00081800      -0.00440000 
Al      4.93945000       2.85157000       6.99053000       13       0.01830100       0.00089700      -0.00692800 
Al      3.29273000       2.85289000       9.31866000       13       0.00774300      -0.00447300       0.02499900 
Al      0.82194000       1.42038000       9.31949000       13       0.01457400       0.00824200       0.01144500 
Al      1.64714000       2.85222000      11.65049000       13       0.00214400      -0.00315800      -0.05649000 
Al      4.12191000       1.42856000      11.64874000       13      -0.02416400      -0.00490000      -0.05259300 
Al      2.47312000       1.42465000      13.97711000       13       0.00310400       0.00036500       0.01144100 
Al      0.00202000       2.85260000      13.97884000       13      -0.00320100       0.00211600       0.00948800 
Al      1.65017000       2.85202000      16.30824000       13      -0.02894200       0.00477900       0.04762100 
Al      4.11689000       1.43155000      16.31181000       13       0.01859400      -0.01268200       0.02674500 
Al      3.29555000       2.85188000      18.63293000       13      -0.00184000       0.00161800       0.02707000 
Al      0.82369000       1.42273000      18.64182000       13       0.01452900       0.00128300      -0.03055400 
Al      2.46771000       1.42485000      20.96949000       13       0.03035000       0.00057800      -0.01075200 
Al      0.00345000       2.84954000      20.97145000       13      -0.03334100      -0.00033000      -0.00980600 
Al      4.11561000       1.42549000      23.29940000       13       0.00173300      -0.00040100       0.00361000 
Al      1.64602000       0.00226000      23.29860000       13      -0.00486000      -0.00664600       0.02166300 
Al      3.29530000       2.85085000      25.62839000       13      -0.00002900       0.00775900      -0.04612900 
Al      0.82190000       1.42952000      25.62634000       13       0.01686000      -0.00667000      -0.04466200 
24
Lattice="4.942536 0.0 0.0 0.0 2.853575 0.0 0.0 0.0 27.959197" Properties=species:S:1:pos:R:3:Z:I:1:force:R:3 energy=-89.85569574 pbc="T T T"
Al      2.47212000       1.43094000      27.95474000       13       0.01629800      -0.00626600       0.01302900 
Al      0.00669000       2.85009000      27.95803000       13      -0.01956800       0.00997900       0.00689000 
Al      3.28943000       0.00745000       2.33228000       13       0.03479600      -0.00609400       0.02174900 
Al      0.82341000       1.43091000       2.33139000       13      -0.00846400      -0.00060500       0.03329700 
Al      4.12140000       1.42371000       4.65696000       13      -0.00104300       0.01094100      -0.00685000 
Al      1.65298000       0.00528000       4.65597000       13      -0.03086300      -0.00716400       0.01308500 
Al      2.47397000       1.42938000       6.98913000       13      -0.03704600      -0.00513900      -0.00845000 
Al      4.93637000       2.84956000       6.99127000       13       0.03638600       0.00071300      -0.02003100 
Al      3.29044000       2.85220000       9.31760000       13       0.01237900      -0.00374500       0.03317500 
Al      0.82012000       1.41397000       9.31926000       13       0.01866400       0.01754500       0.01275600 
Al      1.64677000       2.85087000      11.65131000       13       0.01735300      -0.00166200      -0.06614900 
Al      4.12503000       1.43034000      11.64779000       13      -0.03909100      -0.00949100      -0.05261800 
Al      2.47497000       1.42251000      13.97462000       13       0.00797200       0.00175800       0.01258000 
Al      0.00404000       2.85163000      13.97809000       13      -0.00680100       0.00469800       0.02201000 
Al      1.65283000       2.85046000      16.30697000       13      -0.05518100       0.00849100       0.04818600 
Al      4.11501000       1.43631000      16.31409000       13       0.04709000      -0.02543400       0.00043700 
Al      3.29606000       2.85019000      18.62639000       13      -0.00702800      -0.00194800       0.07176000 
Al      0.82363000       1.41867000      18.64416000       13       0.01534000       0.00953900      -0.04804500 
Al      2.46416000       1.42291000      20.96958000       13       0.06256000      -0.00421000      -0.02162100 
Al      0.00689000       2.84551000      20.97350000       13      -0.06594800       0.00373600      -0.02486800 
Al      4.11244000       1.42419000      23.29948000       13       0.00382500       0.00289100      -0.00371100 
Al      1.64453000       0.00452000      23.29788000       13      -0.00683500      -0.01247000       0.02293800 
Al      3.29558000       2.84812000      25.62751000       13      -0.00893500       0.01471900      -0.04190400 
Al      0.82005000       1.43226000      25.62341000       13       0.02321700      -0.01266400      -0.04094800 
24
Lattice="4.942536 0.0 0.0 0.0 2.853575 0.0 0.0 0.0 27.959197" Properties=species:S:1:pos:R:3:Z:I:1:force:R:3 energy=-89.85242027 pbc="T T T"
Al      2.47254000       1.43301000      27.95252000       13       0.02409400      -0.01285900       0.01478200 
Al      0.01003000       2.84835000      27.95745000       13      -0.03867400       0.01951400       0.00926600 
Al      3.28663000       0.01118000       2.33347000       13       0.05084600      -0.00999000       0.01057500 
Al      0.82323000       1.43297000       2.33213000       13      -0.01779400       0.00137500       0.02600300 
Al      4.12272000       1.42217000       4.65550000       13       0.00583300       0.01655800      -0.00078200 
Al      1.65571000       0.00792000       4.65402000       13      -0.03766600      -0.00887100       0.02702300 
Al      2.47531000       1.43068000       6.98879000       13      -0.05350600      -0.00650900      -0.01058900 
Al      4.93330000       2.84756000       6.99200000       13       0.06175900       0.00215500      -0.02744300 
Al      3.28815000       2.85151000       9.31654000       13       0.01464500      -0.00741600       0.04648500 
Al      0.81830000       1.40756000       9.31903000       13       0.01384200       0.02781300       0.00760600 
Al      1.64640000       2.84952000      11.65212000       13       0.03305200      -0.00121500      -0.07082800 
Al      4.12816000       1.43212000      11.64684000       13      -0.05327300      -0.01515400      -0.06009500 
Al      2.47682000       1.42037000      13.97213000       13       0.01620700       0.00636100       0.01804300 
Al      0.00606000       2.85065000      13.97733000       13      -0.01232200       0.00298000       0.03441600 
Al      1.65548000       2.84891000      16.30570000       13      -0.08140800       0.01420100       0.04882000 
Al      4.11313000       1.44107000      16.31638000       13       0.07048100      -0.03484200      -0.02248300 
Al      3.29658000       2.84850000      18.61986000       13      -0.01002100      -0.00349000       0.10896100 
Al      0.82357000       1.41461000      18.64650000       13       0.01888100       0.01314500      -0.06065000 
Al      2.46061000       1.42097000      20.96968000       13       0.10407400      -0.00305400      -0.03325000 
Al      0.01033000       2.84148000      20.97555000       13      -0.10678900       0.00568900      -0.02722400 
Al      4.10927000       1.42289000      23.29955000       13       0.01438200       0.00412000      -0.00917400 
Al      1.64303000       0.00678000      23.29716000       13      -0.00642400      -0.01453100       0.02793600 
Al      3.29586000       2.84539000      25.62662000       13      -0.01704700       0.01988400      -0.03800600 
Al      0.81820000       1.43500000      25.62047000       13       0.02952100      -0.01438300      -0.03744100 
24
Lattice="4.942536 0.0 0.0 0.0 2.853575 0.0 0.0 0.0 27.959197" Properties=species:S:1:pos:R:3:Z:I:1:force:R:3 energy=-89.84773108 pbc="T T T"
Al      2.47297000       1.43509000      27.95029000       13       0.03121200      -0.01474800       0.01655500 
Al      0.01336000       2.84660000      27.95687000       13      -0.04980300       0.02434600       0.00833300 
Al      3.28384000       0.01490000       2.33465000       13       0.06087600      -0.01827000      -0.00416100 
Al      0.82305000       1.43504000       2.33287000       13      -0.02520200       0.00285400       0.01901400 
Al      4.12403000       1.42063000       4.65404000       13       0.01040500       0.01904600       0.00288700 
Al      1.65844000       0.01056000       4.65207000       13      -0.04747500      -0.01398800       0.03894200 
Al      2.47666000       1.43198000       6.98845000       13      -0.07122300      -0.01147500      -0.01134300 
Al      4.93023000       2.84555000       6.99273000       13       0.07941500       0.00091900      -0.03698700 
Al      3.28587000       2.85082000       9.31548000       13       0.01564800      -0.00742500       0.05347500 
Al      0.81649000       1.40115000       9.31880000       13       0.01442200       0.03683600       0.01064600 
Al      1.64603000       2.84816000      11.65292000       13       0.04718900      -0.00214000      -0.07769500 
Al      4.13128000       1.43389000      11.64589000       13      -0.06770100      -0.01819800      -0.06390400 
Al      2.47868000       1.41823000      13.96964000       13       0.01711200       0.00248500       0.02024600 
Al      0.00808000       2.84968000      13.97659000       13      -0.01683900       0.00509700       0.04511300 
Al      1.65812000       2.84736000      16.30444000       13      -0.10043900       0.01519200       0.04542800 
Al      4.11126000       1.44583000      16.31867000       13       0.09784700      -0.04979300      -0.04733300 
Al      3.29710000       2.84680000      18.61334000       13      -0.01497900       0.00229500       0.15875100 
Al      0.82351000       1.41056000      18.64883000       13       0.01556700       0.02429000      -0.08240600 
Al      2.45707000       1.41904000      20.96976000       13       0.13837900       0.00023800      -0.04305900 
Al      0.01375000       2.83745000      20.97760000       13      -0.14739800       0.00785800      -0.03476100 
Al      4.10610000       1.42159000      23.29963000       13       0.01716800       0.00655100      -0.01861300 
Al      1.64154000       0.00904000      23.29644000       13      -0.00523600      -0.02482000       0.03910700 
Al      3.29613000       2.84266000      25.62573000       13      -0.02618700       0.03039600      -0.03737500 
Al      0.81635000       1.43773000      25.61753000       13       0.03190500      -0.02193500      -0.03331000 
24
Lattice="4.942536 0.0 0.0 0.0 2.853575 0.0 0.0 0.0 27.959197" Properties=species:S:1:pos:R:3:Z:I:1:force:R:3 energy=-89.8414754 pbc="T T T"
Al      2.47340000       1.43716000      27.94807000       13       0.04153500      -0.01659900       0.01859600 
Al      0.01670000       2.84487000      27.95629000       13      -0.06286900       0.03272700       0.01362900 
Al      3.28106000       0.01862000       2.33584000       13       0.07609200      -0.02139700      -0.02138400 
Al      0.82287000       1.43710000       2.33361000       13      -0.03349200       0.00272700       0.01369200 
Al      4.12534000       1.41909000       4.65259000       13       0.01949500       0.02568700       0.00633200 
Al      1.66116000       0.01319000       4.65012000       13      -0.05707500      -0.02388700       0.05369300 
Al      2.47799000       1.43327000       6.98811000       13      -0.09025200      -0.01240800      -0.01599600 
Al      4.92716000       2.84355000       6.99345000       13       0.10149700       0.00006400      -0.04255100 
Al      3.28358000       2.85014000       9.31443000       13       0.01456700      -0.01101100       0.06420200 
Al      0.81467000       1.39475000       9.31857000       13       0.02251700       0.04372300       0.01015200 
Al      1.64567000       2.84681000      11.65372000       13       0.06164100      -0.00054600      -0.08871300 
Al      4.13439000       1.43566000      11.64493000       13      -0.08536500      -0.01918400      -0.06676700 
Al      2.48053000       1.41609000      13.96715000       13       0.01731100       0.00520100       0.02897200 
Al      0.01010000       2.84871000      13.97584000       13      -0.02831900       0.00454000       0.05642800 
Al      1.66075000       2.84581000      16.30318000       13      -0.12329700       0.01867700       0.04508700 
Al      4.10939000       1.45058000      16.32095000       13       0.12713500      -0.05963200      -0.07160600 
Al      3.29762000       2.84511000      18.60683000       13      -0.02045700       0.00492600       0.20514700 
Al      0.82345000       1.40650000      18.65116000       13       0.01842600       0.02475200      -0.09542100 
Al      2.45354000       1.41710000      20.96985000       13       0.17034300      -0.00034800      -0.05261400 
Al      0.01717000       2.83342000      20.97965000       13      -0.18521100       0.01201700      -0.04739300 
Al      4.10293000       1.42030000      23.29970000       13       0.02202400       0.00279300      -0.02877200 
Al      1.64004000       0.01129000      23.29573000       13      -0.00512600      -0.02688500       0.04622700 
Al      3.29641000       2.83994000      25.62484000       13      -0.03231900       0.03977600      -0.03085500 
Al      0.81451000       1.44046000      25.61459000       13       0.03758300      -0.03434700      -0.02273600 
24
Lattice="4.942536 0.0 0.0 0.0 2.853575 0.0 0.0 0.0 27.959197" Properties=species:S:1:pos:R:3:Z:I:1:force:R:3 energy=-89.8336771 pbc="T T T"
Al      2.47383000       1.43923000      27.94585000       13       0.05064900      -0.02602800       0.02618600 
Al      0.02002000       2.84313000      27.95571000       13      -0.07158700       0.03795300       0.01420500 
Al      3.27828000       0.02234000       2.33702000       13       0.08705300      -0.02602000      -0.03696300 
Al      0.82269000       1.43916000       2.33436000       13      -0.04316400       0.00510500       0.00682000 
Al      4.12666000       1.41756000       4.65113000       13       0.02754100       0.02951200       0.01178900 
Al      1.66388000       0.01583000       4.64818000       13      -0.06766500      -0.02719800       0.07117700 
Al      2.47932000       1.43457000       6.98777000       13      -0.11020100      -0.01530100      -0.02264800 
Al      4.92411000       2.84154000       6.99417000       13       0.11723200      -0.00148000      -0.04864300 
Al      3.28130000       2.84945000       9.31339000       13       0.01603700      -0.01376800       0.07307600 
Al      0.81286000       1.38835000       9.31834000       13       0.02744600       0.06465500       0.00195000 
Al      1.64532000       2.84545000      11.65450000       13       0.07363300       0.00024100      -0.09805900 
Al      4.13749000       1.43743000      11.64397000       13      -0.09822000      -0.02650000      -0.07160600 
Al      2.48239000       1.41395000      13.96467000       13       0.02115700       0.00958300       0.03825900 
Al      0.01211000       2.84774000      13.97510000       13      -0.02923300       0.00704000       0.06489800 
Al      1.66337000       2.84426000      16.30192000       13      -0.14961000       0.02423700       0.04685500 
Al      4.10754000       1.45532000      16.32322000       13       0.15806100      -0.07326500      -0.10459700 
Al      3.29813000       2.84342000      18.60034000       13      -0.02240200       0.00793000       0.25159700 
Al      0.82340000       1.40245000      18.65348000       13       0.02100600       0.02639300      -0.11236800 
Al      2.45003000       1.41516000      20.96993000       13       0.20128300      -0.00441600      -0.05898100 
Al      0.02056000       2.82939000      20.98169000       13      -0.22190200       0.02303300      -0.05450200 
Al      4.09977000       1.41900000      23.29978000       13       0.02726300       0.00472600      -0.03534800 
Al      1.63855000       0.01354000      23.29502000       13      -0.00501600      -0.03434900       0.05355800 
Al      3.29668000       2.83722000      25.62394000       13      -0.03848100       0.04209300      -0.02872700 
Al      0.81267000       1.44319000      25.61164000       13       0.04671800      -0.04652600      -0.01460700 
24
Lattice="4.942536 0.0 0.0 0.0 2.853575 0.0 0.0 0.0 27.959197" Properties=species:S:1:pos:R:3:Z:I:1:force:R:3 energy=-89.8243104 pbc="T T T"
Al      2.47427000       1.44130000      27.94363000       13       0.05898900      -0.03127900       0.03570600 
Al      0.02334000       2.84140000      27.95513000       13      -0.09084300       0.04767100       0.02136000 
Al      3.27551000       0.02606000       2.33820000       13       0.10366300      -0.03517900      -0.05523300 
Al      0.82250000       1.44122000       2.33510000       13      -0.05551400       0.00181700      -0.00249600 
Al      4.12798000       1.41602000       4.64967000       13       0.03282400       0.03709800       0.01484900 
Al      1.66659000       0.01846000       4.64624000       13      -0.07606600      -0.03468400       0.09100500 
Al      2.48063000       1.43586000       6.98743000       13      -0.13346200      -0.01664600      -0.02586800 
Al      4.92106000       2.83953000       6.99489000       13       0.14028100       0.00278900      -0.06336000 
Al      3.27901000       2.84875000       9.31235000       13       0.01770200      -0.01663500       0.08531400 
Al      0.81105000       1.38196000       9.31811000       13       0.02847900       0.07829900      -0.00143400 
Al      1.64497000       2.84410000      11.65528000       13       0.08984700      -0.00102700      -0.10836100 
Al      4.14059000       1.43920000      11.64300000       13      -0.12074300      -0.03441200      -0.07340300 
Al      2.48425000       1.41181000      13.96219000       13       0.02081600       0.00631600       0.04416000 
Al      0.01413000       2.84676000      13.97436000       13      -0.03371800       0.00950600       0.07336600 
Al      1.66598000       2.84271000      16.30067000       13      -0.17352400       0.03252000       0.04843300 
Al      4.10570000       1.46006000      16.32548000       13       0.18548800      -0.08400100      -0.12812600 
Al      3.29864000       2.84173000      18.59387000       13      -0.02849300       0.01005500       0.29353400 
Al      0.82334000       1.39840000      18.65578000       13       0.02426300       0.02661000      -0.12892000 
Al      2.44654000       1.41322000      20.97000000       13       0.24423700       0.00021500      -0.07022700 
Al      0.02394000       2.82536000      20.98372000       13      -0.26399400       0.02680100      -0.06525400 
Al      4.09661000       1.41770000      23.29985000       13       0.03642900       0.00879000      -0.04256000 
Al      1.63705000       0.01579000      23.29432000       13      -0.00573300      -0.04087600       0.06313600 
Al      3.29695000       2.83450000      25.62304000       13      -0.04444700       0.04696100      -0.02697100 
Al      0.81083000       1.44592000      25.60869000       13       0.05092200      -0.05129200      -0.01169900 
24
Lattice="4.942536 0.0 0.0 0.0 2.853575 0.0 0.0 0.0 27.959197" Properties=species:S:1:pos:R:3:Z:I:1:force:R:3 energy=-89.81339653 pbc="T T T"
Al      2.47472000       1.44336000      27.94142000       13       0.06934500      -0.03256600       0.04279500 
Al      0.02666000       2.83967000      27.95456000       13      -0.10625700       0.05381500       0.02018300 
Al      3.27275000       0.02978000       2.33937000       13       0.12081400      -0.03468600      -0.06736200 
Al      0.82231000       1.44329000       2.33585000       13      -0.06380800       0.00631100      -0.00951500 
Al      4.12930000       1.41450000       4.64821000       13       0.03588300       0.04072300       0.02006800 
Al      1.66930000       0.02109000       4.64432000       13      -0.08972400      -0.03844800       0.10623200 
Al      2.48194000       1.43715000       6.98708000       13      -0.15261300      -0.02171900      -0.03114500 
Al      4.91803000       2.83753000       6.99560000       13       0.16097200       0.00606500      -0.07188400 
Al      3.27673000       2.84806000       9.31132000       13       0.01552300      -0.02022900       0.09540100 
Al      0.80924000       1.37557000       9.31788000       13       0.03040600       0.08623100      -0.00946200 
Al      1.64462000       2.84275000      11.65605000       13       0.10216100      -0.00091500      -0.11617100 
Al      4.14368000       1.44097000      11.64202000       13      -0.13454800      -0.04162000      -0.07632900 
Al      2.48611000       1.40967000      13.95971000       13       0.02502200       0.01189900       0.05959200 
Al      0.01613000       2.84579000      13.97364000       13      -0.03945600       0.01357700       0.08031900 
Al      1.66857000       2.84116000      16.29942000       13      -0.19738000       0.03780200       0.04967600 
Al      4.10388000       1.46479000      16.32774000       13       0.21264000      -0.10135700      -0.15592400 
Al      3.29915000       2.84004000      18.58743000       13      -0.02680000       0.01540400       0.33974400 
Al      0.82329000       1.39435000      18.65808000       13       0.02269000       0.03232400      -0.14725100 
Al      2.44306000       1.41128000      20.97007000       13       0.28180300       0.00263300      -0.07616100 
Al      0.02730000       2.82134000      20.98575000       13      -0.29854900       0.02785000      -0.07849100 
Al      4.09345000       1.41641000      23.29991000       13       0.04250800       0.00905700      -0.04873600 
Al      1.63556000       0.01804000      23.29362000       13      -0.00311600      -0.04434200       0.07658900 
Al      3.29721000       2.83179000      25.62214000       13      -0.05391900       0.05566100      -0.02102700 
Al      0.80900000       1.44864000      25.60575000       13       0.05990400      -0.05578300      -0.00703900 
24
Lattice="4.942536 0.0 0.0 0.0 2.853575 0.0 0.0 0.0 27.959197" Properties=species:S:1:pos:R:3:Z:I:1:force:R:3 energy=-89.80098354 pbc="T T T"
Al      2.47517000       1.44542000      27.93921000       13       0.07503900      -0.03942300       0.04968000 
Al      0.02996000       2.83795000      27.95399000       13      -0.12551400       0.06379200       0.01976600 
Al      3.27000000       0.03349000       2.34054000       13       0.13222300      -0.03787500      -0.08139300 
Al      0.82211000       1.44535000       2.33659000       13      -0.07017600       0.00671000      -0.01575800 
Al      4.13062000       1.41297000       4.64676000       13       0.04146700       0.05314200       0.02673600 
Al      1.67200000       0.02372000       4.64240000       13      -0.10802800      -0.04281500       0.11929700 
Al      2.48323000       1.43844000       6.98673000       13      -0.17254500      -0.02450400      -0.03572000 
Al      4.91502000       2.83552000       6.99631000       13       0.18425300       0.00916400      -0.08019900 
Al      3.27445000       2.84737000       9.31029000       13       0.02202300      -0.02009300       0.10732500 
Al      0.80744000       1.36920000       9.31765000       13       0.03282200       0.09371400      -0.01627700 
Al      1.64429000       2.84139000      11.65681000       13       0.11430800      -0.00131000      -0.12880400 
Al      4.14675000       1.44273000      11.64103000       13      -0.15322900      -0.04713400      -0.07758400 
Al      2.48798000       1.40754000      13.95724000       13       0.02826400       0.01718200       0.06546900 
Al      0.01814000       2.84482000      13.97291000       13      -0.04219400       0.01419400       0.08787200 
Al      1.67115000       2.83962000      16.29818000       13      -0.21900400       0.04068100       0.04507600 
Al      4.10207000       1.46952000      16.32998000       13       0.23725600      -0.11481700      -0.18255500 
Al      3.29966000       2.83835000      18.58102000       13      -0.03132700       0.02013300       0.37932000 
Al      0.82324000       1.39031000      18.66036000       13       0.02248000       0.03277300      -0.16395700 
Al      2.43962000       1.40935000      20.97013000       13       0.32062900       0.00439300      -0.08754100 
Al      0.03062000       2.81732000      20.98777000       13      -0.33194800       0.03564000      -0.07869200 
Al      4.09029000       1.41511000      23.29997000       13       0.04553300       0.00760900      -0.05447500 
Al      1.63406000       0.02028000      23.29293000       13      -0.00466300      -0.05020300       0.07862900 
Al      3.29747000       2.82908000      25.62124000       13      -0.06218300       0.06666800      -0.01735400 
Al      0.80717000       1.45136000      25.60280000       13       0.06714200      -0.06474300      -0.00340100 
24
Lattice="4.942536 0.0 0.0 0.0 2.853575 0.0 0.0 0.0 27.959197" Properties=species:S:1:pos:R:3:Z:I:1:force:R:3 energy=-89.78707721 pbc="T T T"
Al      2.47562000       1.44748000      27.93700000       13       0.08040800      -0.04617700       0.05221800 
Al      0.03325000       2.83623000      27.95341000       13      -0.13766900       0.06829800       0.02433900 
Al      3.26727000       0.03720000       2.34170000       13       0.15390500      -0.05642800      -0.10685700 
Al      0.82190000       1.44741000       2.33733000       13      -0.07863000       0.00962300      -0.02405600 
Al      4.13195000       1.41145000       4.64531000       13       0.04784600       0.06326900       0.03777000 
Al      1.67468000       0.02634000       4.64049000       13      -0.11944300      -0.04889500       0.14135800 
Al      2.48451000       1.43973000       6.98638000       13      -0.19120100      -0.02674400      -0.04080300 
Al      4.91201000       2.83352000       6.99700000       13       0.20416400       0.01298300      -0.08751800 
Al      3.27217000       2.84667000       9.30928000       13       0.02157800      -0.02612400       0.11490000 