60
Lattice="4.035563 0.0 0.0 0.0 9.023793 0.0 0.0 0.0 29.169012" Properties=species:S:1:pos:R:3:Z:I:1:force:R:3 energy=-221.1463021 pbc="T T T"
Al      0.00000000       0.00000000       0.00000000       13      -0.00020600      -0.09936500      -0.00001500 
Al      2.01778000       4.51190000       0.00000000       13      -0.00015400      -0.10080600      -0.00001000 
Al      2.01778000       1.80476000       1.42680000       13       0.00025000      -0.03727700      -0.42471400 
Al      0.00000000       6.31666000       1.42680000       13       0.00015100      -0.03815500      -0.42487900 
Al      0.00000000       3.60952000       2.32917000       13      -0.00033000       0.10848400      -0.43320600 
Al      2.01778000       8.12141000       2.32917000       13      -0.00022000       0.10852900      -0.43248400 
Al      2.01778000       5.41428000       3.23155000       13       0.00081200      -0.03416300      -0.24334700 
Al      0.00000000       0.90238000       3.23155000       13       0.00073900      -0.03404000      -0.24350700 
Al      0.00000000       7.21903000       4.13392000       13       0.00020600       0.04898700       0.01252400 
Al      2.01778000       2.70714000       4.13392000       13       0.00029800       0.04859700       0.01272200 
Al      0.00000000       4.51190000       5.03629000       13      -0.00154500      -0.02425700       0.04662600 
Al      2.01778000       0.00000000       5.03632000       13      -0.00149500      -0.02437100       0.04682900 
Al      2.01778000       6.31666000       5.93869000       13       0.00017800      -0.02419700       0.00502900 
Al      0.00000000       1.80476000       5.93869000       13       0.00009800      -0.02436300       0.00528100 
Al      0.00000000       8.12141000       6.84107000       13       0.00156700      -0.01350200      -0.01659500 
Al      2.01778000       3.60952000       6.84107000       13       0.00164600      -0.01360600      -0.01635800 
Al      2.01778000       0.90238000       7.74344000       13      -0.00156800       0.01361900       0.01638700 
Al      0.00000000       5.41428000       7.74344000       13      -0.00164600       0.01348600       0.01661900 
Al      0.00000000       2.70714000       8.64581000       13      -0.00017800       0.02437700      -0.00528600 
Al      2.01778000       7.21903000       8.64581000       13      -0.00009800       0.02418500      -0.00502700 
Al      0.00000000       0.00000000       9.54821000       13       0.00149500       0.02425500      -0.04662800 
Al      2.01778000       4.51190000       9.54821000       13       0.00154400       0.02436900      -0.04689300 
Al      2.01778000       1.80476000      10.45059000       13      -0.00020500      -0.04859700      -0.01268600 
Al      0.00000000       6.31666000      10.45059000       13      -0.00029800      -0.04897000      -0.01252300 
Al      0.00000000       3.60952000      11.35296000       13      -0.00081200       0.03400900       0.24356500 
Al      2.01778000       8.12141000      11.35296000       13      -0.00073900       0.03416900       0.24335100 
Al      2.01778000       5.41428000      12.25533000       13       0.00033000      -0.10852800       0.43252200 
Al      0.00000000       0.90238000      12.25533000       13       0.00022000      -0.10847200       0.43321000 
Al      0.00000000       7.21903000      13.15770000       13      -0.00025100       0.03815700       0.42488200 
Al      2.01778000       2.70714000      13.15773000       13      -0.00015100       0.03727600       0.42463100 
Al      2.01778000       0.00000000      14.58451000       13       0.00020600       0.10079500       0.00001300 
Al      0.00000000       4.51190000      14.58451000       13       0.00015400       0.09937400       0.00001900 
Al      2.01778000       2.70714000      16.01128000       13      -0.00015100       0.03727600      -0.42458300 
Al      0.00000000       7.21903000      16.01131000       13      -0.00025100       0.03815100      -0.42483900 
Al      0.00000000       0.90238000      16.91368000       13       0.00022000      -0.10846600      -0.43317000 
Al      2.01778000       5.41428000      16.91368000       13       0.00033100      -0.10852700      -0.43248000 
Al      2.01778000       8.12141000      17.81605000       13      -0.00073900       0.03417100      -0.24333400 
Al      0.00000000       3.60952000      17.81605000       13      -0.00081300       0.03400900      -0.24353300 
Al      0.00000000       6.31666000      18.71843000       13      -0.00029900      -0.04897800       0.01252200 
Al      2.01778000       1.80476000      18.71843000       13      -0.00020400      -0.04859400       0.01267700 
Al      2.01778000       4.51190000      19.62080000       13       0.00154500       0.02437000       0.04686000 
Al      0.00000000       0.00000000      19.62080000       13       0.00149400       0.02425700       0.04660200 
Al      2.01778000       7.21903000      20.52320000       13      -0.00009800       0.02418300       0.00500000 
Al      0.00000000       2.70714000      20.52320000       13      -0.00017900       0.02438100       0.00524500 
Al      0.00000000       5.41428000      21.42557000       13      -0.00164900       0.01349200      -0.01663700 
Al      2.01778000       0.90238000      21.42557000       13      -0.00156700       0.01361300      -0.01640700 
Al      2.01778000       3.60952000      22.32795000       13       0.00164900      -0.01359900       0.01636700 
Al      0.00000000       8.12141000      22.32795000       13       0.00156700      -0.01351000       0.01660100 
Al      0.00000000       1.80476000      23.23032000       13       0.00009700      -0.02436600      -0.00525000 
Al      2.01778000       6.31666000      23.23032000       13       0.00017900      -0.02419800      -0.00501100 
Al      2.01778000       0.00000000      24.13269000       13      -0.00149400      -0.02437100      -0.04680000 
Al      0.00000000       4.51190000      24.13272000       13      -0.00154600      -0.02425800      -0.04660500 
Al      2.01778000       2.70714000      25.03509000       13       0.00029900       0.04859500      -0.01271200 
Al      0.00000000       7.21903000      25.03509000       13       0.00020500       0.04899200      -0.01252300 
Al      0.00000000       0.90238000      25.93746000       13       0.00073800      -0.03403800       0.24348000 
Al      2.01778000       5.41428000      25.93746000       13       0.00081300      -0.03416500       0.24333400 
Al      2.01778000       8.12141000      26.83984000       13      -0.00022000       0.10852800       0.43244900 
Al      0.00000000       3.60952000      26.83984000       13      -0.00033100       0.10848100       0.43317000 
Al      0.00000000       6.31666000      27.74221000       13       0.00015100      -0.03815000       0.42484400 
Al      2.01778000       1.80476000      27.74221000       13       0.00025100      -0.03727600       0.42467400 
60
Lattice="4.035563 0.0 0.0 0.0 9.023793 0.0 0.0 0.0 29.169012" Properties=species:S:1:pos:R:3:Z:I:1:force:R:3 energy=-221.13969237 pbc="T T T"
Al      0.00045000       0.00219000      29.16665000       13      -0.00038400      -0.09987500       0.00161200 
Al      2.02133000       4.51004000      29.16839000       13      -0.00104700      -0.09746100       0.00052600 
Al      2.01481000       1.80871000       1.42801000       13       0.00146900      -0.04562000      -0.43382200 
Al      4.03537000       6.31884000       1.42754000       13       0.00781400      -0.03902300      -0.43246900 
Al      0.00140000       3.60789000       2.32759000       13      -0.00883000       0.12169300      -0.41179300 
Al      2.02069000       8.12423000       2.32706000       13      -0.01877600       0.09837400      -0.41873600 
Al      2.01922000       5.41565000       3.23117000       13      -0.00729100      -0.04790800      -0.24774900 
Al      4.03229000       0.90025000       3.23230000       13       0.01800500      -0.03007900      -0.25563000 
Al      4.03313000       7.21831000       4.13279000       13       0.01817800       0.05390200       0.01963100 
Al      2.01585000       2.70033000       4.13367000       13       0.00684500       0.07720300       0.01986000 
Al      4.03517000       4.51046000       5.03717000       13      -0.00173200      -0.03277200       0.03372300 
Al      2.02111000       0.00188000       5.03533000       13      -0.01708300      -0.04574500       0.04315800 
Al      2.01975000       6.31438000       5.93605000       13      -0.00537900      -0.01235400       0.01611100 
Al      0.00215000       1.80372000       5.93789000       13      -0.00381800      -0.01311200       0.00897200 
Al      0.00282000       8.11976000       6.83970000       13       0.00058000      -0.02291500      -0.01216600 
Al      2.01578000       3.61457000       6.84349000       13       0.00531700      -0.05393800      -0.03972400 
Al      2.01833000       0.90058000       7.73650000       13      -0.00873300       0.01992900       0.06328500 
Al      4.03549000       5.40997000       7.74593000       13       0.00141700       0.03944200       0.00582600 
Al      4.03179000       2.70508000       8.64591000       13       0.00639000       0.01930400      -0.00930600 
Al      2.02144000       7.21476000       8.64799000       13      -0.01349100       0.04034600      -0.03269500 
Al      4.03220000       9.02242000       9.54829000       13       0.02345200       0.02830500      -0.06048600 
Al      2.01620000       4.51430000       9.54744000       13      -0.00573700       0.00863200      -0.03302800 
Al      2.01808000       1.80186000      10.44966000       13      -0.01426300      -0.03223400      -0.02324500 
Al      4.03359000       6.31956000      10.44748000       13       0.01157600      -0.05342400       0.00636500 
Al      4.03053000       3.61291000      11.35038000       13       0.02370800       0.01998200       0.25170100 
Al      2.01917000       8.12366000      11.34864000       13      -0.01200700       0.02202500       0.26414100 
Al      2.01939000       5.41528000      12.25593000       13      -0.01431900      -0.10297200       0.42190100 
Al      0.00117000       0.90344000      12.25424000       13      -0.00008800      -0.10771100       0.43355700 
Al      0.00107000       7.21957000      13.15842000       13       0.00373200       0.04043500       0.41252700 
Al      2.01682000       2.70809000      13.15830000       13      -0.00487200       0.03925600       0.41921400 
Al      2.01849000       9.02313000      14.58517000       13       0.00124300       0.10260600       0.00218900 
Al      0.00161000       4.51325000      14.58317000       13      -0.00073600       0.10142400      -0.00181500 
Al      2.01850000       2.71214000      16.01166000       13       0.00196400       0.02835500      -0.43031700 
Al      4.03404000       7.21951000      16.00855000       13       0.00237000       0.03997700      -0.41283500 
Al      4.03442000       0.90651000      16.91753000       13       0.00122400      -0.12481600      -0.45238400 
Al      2.01897000       5.41037000      16.91435000       13       0.00456300      -0.07214400      -0.42879600 
Al      2.01871000       8.12060000      17.81751000       13      -0.00078300       0.02743200      -0.25755100 
Al      0.00163000       3.61129000      17.81722000       13      -0.00925100       0.02470000      -0.24563400 
Al      0.00492000       6.31600000      18.71788000       13      -0.01619800      -0.04303600       0.01346800 
Al      2.01617000       1.80112000      18.71642000       13       0.00664600      -0.03387400       0.02973000 
Al      2.01713000       4.51405000      19.61793000       13       0.02112800       0.01104000       0.05972800 
Al      0.00119000       9.02126000      19.61710000       13      -0.00785400       0.02872300       0.06706800 
Al      2.01364000       7.21805000      20.52667000       13       0.02175900       0.03174100      -0.00105500 
Al      0.00115000       2.70632000      20.52159000       13      -0.00533200       0.02672200       0.01029500 
Al      0.00498000       5.41464000      21.42539000       13      -0.03444400       0.00933100      -0.03126800 
Al      2.01772000       0.90377000      21.43016000       13      -0.00261600       0.01672900      -0.05853200 
Al      2.01926000       3.61036000      22.32989000       13       0.00182900      -0.02034800      -0.00512100 
Al      4.03308000       8.12700000      22.32781000       13       0.00732600      -0.04671900       0.02500300 
Al      4.03450000       1.80641000      23.23262000       13       0.00531800      -0.02294400      -0.01183800 
Al      2.01660000       6.31275000      23.22702000       13       0.00344900      -0.00267500       0.00422900 
Al      2.01791000       9.02165000      24.13116000       13      -0.01182300      -0.02425900      -0.03658600 
Al      0.00047000       4.51514000      24.13041000       13      -0.00220300      -0.03350200      -0.03288400 
Al      2.01789000       2.70537000      25.03140000       13      -0.00283300       0.05487000       0.00161000 
Al      4.03333000       7.21992000      25.03417000       13       0.01025300       0.04867300      -0.01662700 
Al      4.03455000       0.90406000      25.93801000       13       0.01081000      -0.03854000       0.24387800 
Al      2.01875000       5.41275000      25.93616000       13      -0.00716700      -0.02765300       0.24678400 
Al      2.02116000       8.12563000      26.83831000       13      -0.01503700       0.08595200       0.42923800 
Al      0.00015000       3.60717000      26.83930000       13       0.00165400       0.11752500       0.41904700 
Al      0.00110000       6.31690000      27.73929000       13       0.00549500      -0.03718600       0.42943300 
Al      2.01829000       1.80438000      27.74307000       13       0.00050700      -0.03370100       0.42246600 
60
Lattice="4.035563 0.0 0.0 0.0 9.023793 0.0 0.0 0.0 29.169012" Properties=species:S:1:pos:R:3:Z:I:1:force:R:3 energy=-221.12905374 pbc="T T T"
Al      0.00090000       0.00438000      29.16428000       13      -0.00288300      -0.09800100       0.00219900 
Al      2.02488000       4.50817000      29.16778000       13      -0.00446200      -0.09276700      -0.00095800 
Al      2.01183000       1.81266000       1.42918000       13       0.01191200      -0.05681800      -0.44246200 
Al      4.03519000       6.32102000       1.42823000       13       0.01531800      -0.04299500      -0.44385300 
Al      0.00279000       3.60627000       2.32597000       13      -0.02147300       0.13612500      -0.39979400 
Al      2.02359000       8.12705000       2.32491000       13      -0.04066600       0.09050500      -0.41674100 
Al      2.02065000       5.41702000       3.23077000       13      -0.01999000      -0.06731600      -0.24823800 
Al      4.02902000       0.89811000       3.23304000       13       0.03416800      -0.02225900      -0.26356900 
Al      4.03070000       7.21759000       4.13166000       13       0.03669800       0.05628400       0.02381500 
Al      2.01391000       2.69354000       4.13343000       13       0.01817800       0.11288300       0.02188500 
Al      4.03478000       4.50902000       5.03805000       13      -0.00192000      -0.04291800       0.02429700 
Al      2.02443000       0.00376000       5.03435000       13      -0.03277700      -0.06831600       0.04188300 
Al      2.02171000       6.31210000       5.93340000       13      -0.01557800      -0.00192300       0.02950500 
Al      0.00429000       1.80268000       5.93709000       13      -0.00803000       0.00012300       0.01659100 
Al      0.00564000       8.11811000       6.83834000       13      -0.00055200      -0.03005600      -0.00905000 
Al      2.01378000       3.61962000       6.84590000       13       0.00862100      -0.08208700      -0.05268200 
Al      2.01888000       0.89879000       7.72956000       13      -0.01110900       0.02370100       0.08649100 
Al      4.03543000       5.40566000       7.74843000       13       0.00398400       0.06301700      -0.00209300 
Al      4.02801000       2.70303000       8.64601000       13       0.02572500       0.01759300      -0.00990200 
Al      2.02510000       7.21048000       8.65017000       13      -0.03394700       0.06053900      -0.05807100 
Al      4.02883000       9.02104000       9.54836000       13       0.04373700       0.03553500      -0.07891500 
Al      2.01461000       4.51670000       9.54666000       13      -0.01408700      -0.00617400      -0.01840700 
Al      2.01837000       1.79895000      10.44872000       13      -0.02868800      -0.01827900      -0.02723100 
Al      4.03162000       6.32246000      10.44437000       13       0.02739500      -0.06441100       0.02592400 
Al      4.02550000       3.61630000      11.34782000       13       0.03862100       0.00742500       0.24660500 
Al      2.02056000       8.12590000      11.34435000       13      -0.02292400       0.01522300       0.28336500 
Al      2.02100000       5.41628000      12.25656000       13      -0.02755100      -0.10166900       0.41325000 
Al      0.00233000       0.90449000      12.25319000       13      -0.00312900      -0.11092900       0.43786700 
Al      0.00214000       7.22010000      13.15917000       13       0.00787100       0.04330000       0.40036800 
Al      2.01587000       2.70904000      13.15890000       13      -0.00901600       0.04034100       0.41362800 
Al      2.01919000       9.02247000      14.58583000       13       0.00084700       0.10581600       0.00284300 
Al      0.00322000       4.51461000      14.58183000       13      -0.00152000       0.10459900      -0.00473400 
Al      2.01922000       2.71714000      16.01201000       13       0.00440200       0.01584500      -0.42995200 
Al      4.03251000       7.21998000      16.00576000       13       0.00491800       0.04184500      -0.39317200 
Al      4.03328000       0.91062000      16.92134000       13       0.00129800      -0.13787200      -0.46693500 
Al      2.02016000       5.40645000      16.91498000       13       0.01072400      -0.04616400      -0.43782400 
Al      2.01963000       8.11980000      17.81894000       13       0.00077700       0.01733900      -0.26729300 
Al      0.00325000       3.61306000      17.81837000       13      -0.02439900       0.01394300      -0.24464600 
Al      0.00983000       6.31533000      18.71734000       13      -0.05253400      -0.03692700       0.00555400 
Al      2.01457000       1.79748000      18.71442000       13       0.01702600      -0.01814200       0.04670100 
Al      2.01649000       4.51621000      19.61507000       13       0.04197100      -0.00157500       0.07578900 
Al      0.00238000       9.01874000      19.61340000       13      -0.02173500       0.03128600       0.09582400 
Al      2.00950000       7.21707000      20.53015000       13       0.05447500       0.04406200      -0.01813600 
Al      0.00231000       2.70551000      20.51997000       13      -0.01026100       0.02776700       0.01718800 
Al      0.00995000       5.41500000      21.42519000       13      -0.06510900       0.00543700      -0.03571200 
Al      2.01766000       0.90516000      21.43475000       13      -0.00327500       0.01297600      -0.08947700 
Al      2.02073000       3.61120000      22.33183000       13       0.00301800      -0.02725600      -0.02478900 
Al      4.03059000       8.13257000      22.32768000       13       0.00526700      -0.06572500       0.02558500 
Al      4.03343000       1.80806000      23.23493000       13       0.01082700      -0.01683100      -0.02055800 
Al      2.01542000       6.30884000      23.22372000       13       0.01247400       0.01732400       0.01454200 
Al      2.01803000       9.01951000      24.12962000       13      -0.02298100      -0.02630200      -0.02813300 
Al      0.00093000       4.51837000      24.12811000       13      -0.00393700      -0.04334500      -0.01593300 
Al      2.01800000       2.70362000      25.02772000       13      -0.00563800       0.06249500       0.01378000 
Al      4.03109000       7.22081000      25.03325000       13       0.02415500       0.04649200      -0.01653900 
Al      4.03354000       0.90573000      25.93858000       13       0.02266500      -0.04652400       0.23337300 
Al      2.01973000       5.41122000      25.93487000       13      -0.01299000      -0.02469100       0.24573500 
Al      2.02453000       8.12986000      26.83682000       13      -0.02788900       0.06482900       0.42396800 
Al      0.00030000       3.60484000      26.83879000       13       0.00340700       0.13579700       0.40973100 
Al      0.00219000       6.31714000      27.73642000       13       0.01274400      -0.03660900       0.43122900 
Al      2.01880000       1.80399000      27.74396000       13       0.00036100      -0.02888500       0.41971600 
60
Lattice="4.035563 0.0 0.0 0.0 9.023793 0.0 0.0 0.0 29.169012" Properties=species:S:1:pos:R:3:Z:I:1:force:R:3 energy=-221.1143663 pbc="T T T"
Al      0.00135000       0.00656000      29.16192000       13      -0.00288600      -0.10042300       0.01588600 
Al      2.02843000       4.50629000      29.16716000       13      -0.00329900      -0.09028500      -0.00080800 
Al      2.00886000       1.81661000       1.43031000       13       0.01718000      -0.06676400      -0.44538300 
Al      4.03500000       6.32320000       1.42889000       13       0.02286300      -0.04431700      -0.45133700 
Al      0.00418000       3.60467000       2.32431000       13      -0.03103600       0.14782900      -0.38892800 
Al      2.02649000       8.12988000       2.32273000       13      -0.05574300       0.08920300      -0.41681100 
Al      2.02208000       5.41839000       3.23034000       13      -0.02841700      -0.08014000      -0.24760800 
Al      4.02575000       0.89597000       3.23375000       13       0.04718300      -0.02010800      -0.26801700 
Al      4.02827000       7.21687000       4.13053000       13       0.06547100       0.06251300       0.02566500 
Al      2.01198000       2.68675000       4.13318000       13       0.02545300       0.15357900       0.03263600 
Al      4.03438000       4.50757000       5.03894000       13       0.00140800      -0.05403300       0.01204100 
Al      2.02775000       0.00564000       5.03337000       13      -0.04378500      -0.08806200       0.03861500 
Al      2.02368000       6.30983000       5.93076000       13      -0.02402400       0.01033600       0.04436300 
Al      0.00644000       1.80165000       5.93629000       13      -0.02052800       0.01376600       0.02299800 
Al      0.00847000       8.11645000       6.83697000       13       0.00020000      -0.03972200      -0.00579000 
Al      2.01178000       3.62467000       6.84831000       13       0.01625000      -0.11099400      -0.06521400 
Al      2.01943000       0.89700000       7.72263000       13      -0.01607100       0.02551000       0.10687200 
Al      4.03536000       5.40136000       7.75092000       13       0.00866100       0.08264000      -0.01789000 
Al      4.02423000       2.70098000       8.64611000       13       0.04355300       0.01329600      -0.00958000 
Al      2.02875000       7.20621000       8.65234000       13      -0.05342900       0.07794800      -0.08448100 
Al      4.02548000       9.01967000       9.54842000       13       0.06420300       0.03986700      -0.09882100 
Al      2.01303000       4.51910000       9.54588000       13      -0.01993400      -0.02460200      -0.00413400 
Al      2.01866000       1.79604000      10.44779000       13      -0.04542700       0.00153400      -0.02666100 
Al      4.02966000       6.32535000      10.44127000       13       0.04707400      -0.07114500       0.04483700 
Al      4.02047000       3.61970000      11.34529000       13       0.06235300      -0.00196500       0.25564300 
Al      2.02194000       8.12815000      11.34008000       13      -0.03356100      -0.00130900       0.30368800 
Al      2.02260000       5.41727000      12.25723000       13      -0.04170300      -0.09501400       0.40476700 
Al      0.00350000       0.90554000      12.25218000       13      -0.00341300      -0.11059200       0.43990400 
Al      0.00321000       7.22064000      13.15996000       13       0.01213800       0.04621000       0.38724300 
Al      2.01491000       2.71000000      13.15954000       13      -0.01297400       0.04105600       0.40716900 
Al      2.01990000       9.02183000      14.58649000       13      -0.00154300       0.10757600       0.00217200 
Al      0.00483000       4.51597000      14.58050000       13       0.00002000       0.10533500      -0.00671300 
Al      2.01994000       2.72215000      16.01232000       13       0.00107000      -0.00280900      -0.43432900 
Al      4.03099000       7.22046000      16.00293000       13       0.01232600       0.04230400      -0.37457000 
Al      4.03213000       0.91473000      16.92511000       13       0.00275600      -0.14836600      -0.48374300 
Al      2.02136000       5.40253000      16.91557000       13       0.01184600      -0.02264000      -0.44241900 
Al      2.02056000       8.11899000      17.82034000       13       0.00082500       0.00483100      -0.28343600 
Al      0.00487000       3.61483000      17.81949000       13      -0.03102200       0.00825800      -0.24395200 
Al      0.01474000       6.31467000      18.71680000       13      -0.07612000      -0.02988800       0.00546700 
Al      2.01296000       1.79383000      18.71242000       13       0.03467300      -0.00163700       0.06747800 
Al      2.01585000       4.51837000      19.61221000       13       0.06156800      -0.01798900       0.10463500 
Al      0.00357000       9.01621000      19.60972000       13      -0.03185100       0.04137100       0.12879300 
Al      2.00536000       7.21610000      20.53362000       13       0.08362000       0.05370000      -0.02860500 
Al      0.00346000       2.70469000      20.51836000       13      -0.01730300       0.02831500       0.02569800 
Al      0.01492000       5.41537000      21.42500000       13      -0.09685100       0.00559700      -0.04652600 
Al      2.01759000       0.90655000      21.43933000       13      -0.00420000       0.01425400      -0.11397600 
Al      2.02220000       3.61204000      22.33377000       13       0.00250900      -0.03215900      -0.04746400 
Al      4.02811000       8.13814000      22.32755000       13       0.01360800      -0.08867600       0.02100800 
Al      4.03237000       1.80971000      23.23723000       13       0.01875600      -0.01506000      -0.02719000 
Al      2.01424000       6.30494000      23.22042000       13       0.01937000       0.04527800       0.03455000 
Al      2.01815000       9.01737000      24.12809000       13      -0.03417700      -0.02776800      -0.01385800 
Al      0.00140000       4.52161000      24.12580000       13      -0.00322500      -0.05881000       0.00464700 
Al      2.01810000       2.70186000      25.02403000       13      -0.00860600       0.07500000       0.03065600 
Al      4.02886000       7.22171000      25.03233000       13       0.03941200       0.04768100      -0.01848700 
Al      4.03252000       0.90740000      25.93917000       13       0.03531500      -0.04935500       0.22790500 
Al      2.02070000       5.40969000      25.93361000       13      -0.02243500      -0.01866900       0.25046300 
Al      2.02790000       8.13410000      26.83538000       13      -0.03992600       0.04611200       0.42706700 
Al      0.00046000       3.60252000      26.83832000       13       0.00523900       0.14586600       0.40754500 
Al      0.00329000       6.31738000      27.73358000       13       0.01558800      -0.03686000       0.44025300 
Al      2.01930000       1.80361000      27.74489000       13       0.00003800      -0.02376300       0.41756700 
60
Lattice="4.035563 0.0 0.0 0.0 9.023793 0.0 0.0 0.0 29.169012" Properties=species:S:1:pos:R:3:Z:I:1:force:R:3 energy=-221.09560485 pbc="T T T"
Al      0.00180000       0.00873000      29.15955000       13      -0.00289200      -0.10353600       0.02011400 
Al      2.03198000       4.50440000      29.16654000       13      -0.00758700      -0.08773600      -0.00081800 
Al      2.00589000       1.82054000       1.43140000       13       0.02221400      -0.07546400      -0.45170100 
Al      4.03482000       6.32538000       1.42950000       13       0.03227200      -0.04846200      -0.46177200 
Al      0.00557000       3.60308000       2.32262000       13      -0.04096100       0.15803300      -0.37860100 
Al      2.02939000       8.13272000       2.32051000       13      -0.07209800       0.08603400      -0.41648700 
Al      2.02351000       5.41974000       3.22990000       13      -0.03777400      -0.09662700      -0.24948700 
Al      4.02249000       0.89383000       3.23444000       13       0.06293100      -0.01957300      -0.27538100 
Al      4.02585000       7.21616000       4.12941000       13       0.08606300       0.06640400       0.02699200 
Al      2.01005000       2.67998000       4.13294000       13       0.03429600       0.18914700       0.03214600 
Al      4.03399000       4.50612000       5.03982000       13       0.00195400      -0.06388200      -0.00000800 
Al      2.03106000       0.00751000       5.03239000       13      -0.05794500      -0.11241200       0.04209900 
Al      2.02564000       6.30755000       5.92813000       13      -0.03407200       0.02346900       0.05275900 
Al      0.00858000       1.80061000       5.93549000       13      -0.03666100       0.02286200       0.02891300 
Al      0.01129000       8.11479000       6.83561000       13       0.00451800      -0.05258000      -0.00309300 
Al      2.00978000       3.62970000       6.85072000       13       0.02346900      -0.13987700      -0.07908200 