96
Lattice="4.035562 0.0 0.0 0.0 14.550428 0.0 0.0 0.0 29.211692" Properties=species:S:1:pos:R:3:Z:I:1:force:R:3 energy=-352.54461508 pbc="T T T"
Al      0.00000000       2.79816000       0.00000000       13      -0.00006000       0.13133900       0.00000300 
Al      2.01778000      10.07338000       0.00000000       13       0.00000800       0.13107200      -0.00000200 
Al      0.00000000       0.00000000       0.00000000       13      -0.00040400      -0.24781200      -0.00000000 
Al      2.01778000       7.27521000       0.00000000       13      -0.00031700      -0.24829000       0.00000200 
Al      2.01778000       4.47705000       1.42679000       13      -0.00044900       0.10381500      -0.44454800 
Al      0.00000000      11.75226000       1.42679000       13      -0.00045900       0.10321600      -0.44467200 
Al      2.01778000       1.67890000       1.98642000       13      -0.00065500      -0.20048000      -0.48295700 
Al      0.00000000       8.95412000       1.98642000       13      -0.00065400      -0.20068200      -0.48295500 
Al      0.00000000       6.15595000       2.54606000       13      -0.00010400       0.22570200      -0.46223700 
Al      2.01778000      13.43117000       2.54606000       13      -0.00010900       0.22568600      -0.46234000 
Al      0.00000000       3.35779000       3.10567000       13       0.00061800      -0.07290200      -0.26036800 
Al      2.01778000      10.63300000       3.10570000       13       0.00057400      -0.07289300      -0.26054900 
Al      2.01778000       7.83485000       3.66531000       13       0.00043900       0.01536100      -0.19488600 
Al      0.00000000       0.55964000       3.66531000       13       0.00048700       0.01562300      -0.19489100 
Al      2.01778000       5.03669000       4.22495000       13      -0.00035800       0.04094500       0.01685900 
Al      0.00000000      12.31190000       4.22495000       13      -0.00032700       0.04106000       0.01668200 
Al      0.00000000       9.51374000       4.78458000       13      -0.00029700       0.00449200       0.04465100 
Al      2.01778000       2.23853000       4.78458000       13      -0.00032100       0.00490700       0.04437600 
Al      0.00000000       6.71558000       5.34422000       13       0.00075000      -0.02814700       0.01528700 
Al      2.01778000      13.99079000       5.34422000       13       0.00068400      -0.02794100       0.01525700 
Al      2.01778000      11.19264000       5.90386000       13       0.00038700      -0.00695300      -0.01283600 
Al      0.00000000       3.91743000       5.90386000       13       0.00042700      -0.00689100      -0.01276900 
Al      2.01778000       8.39448000       6.46347000       13      -0.00059600      -0.02269000      -0.01395500 
Al      0.00000000       1.11926000       6.46347000       13      -0.00060600      -0.02241400      -0.01397000 
Al      0.00000000      12.87153000       7.02310000       13      -0.00038200       0.01781400      -0.01860300 
Al      2.01778000       5.59631000       7.02310000       13      -0.00040400       0.01741700      -0.01893600 
Al      0.00000000      10.07338000       7.58274000       13       0.00038600      -0.02116500       0.01800200 
Al      2.01778000       2.79816000       7.58274000       13       0.00040100      -0.02069500       0.01835600 
Al      2.01778000       0.00000000       8.14238000       13       0.00061100       0.01724600       0.00595300 
Al      0.00000000       7.27521000       8.14238000       13       0.00059100       0.01700300       0.00594500 
Al      2.01778000      11.75226000       8.70202000       13      -0.00039200       0.00262200       0.02084000 
Al      0.00000000       4.47705000       8.70202000       13      -0.00042200       0.00255400       0.02081300 
Al      0.00000000       1.67890000       9.26163000       13      -0.00075100       0.02970600      -0.01418600 
Al      2.01778000       8.95412000       9.26163000       13      -0.00068200       0.02949200      -0.01418300 
Al      0.00000000      13.43117000       9.82126000       13       0.00029800      -0.00634400      -0.03919300 
Al      2.01778000       6.15595000       9.82126000       13       0.00032200      -0.00677100      -0.03895100 
Al      0.00000000      10.63300000      10.38090000       13       0.00031700      -0.04646000      -0.00365400 
Al      2.01778000       3.35779000      10.38090000       13       0.00036500      -0.04631500      -0.00383400 
Al      2.01778000       0.55964000      10.94054000       13      -0.00044700       0.01964000       0.19487100 
Al      0.00000000       7.83485000      10.94054000       13      -0.00048000       0.01936300       0.19487900 
Al      0.00000000       5.03669000      11.50018000       13      -0.00062800       0.08334400       0.26191200 
Al      2.01778000      12.31190000      11.50018000       13      -0.00056400       0.08329100       0.26203800 
Al      0.00000000       2.23853000      12.05978000       13       0.00010300      -0.22134300       0.45332500 
Al      2.01778000       9.51374000      12.05978000       13       0.00011000      -0.22140900       0.45339100 
Al      2.01778000       6.71558000      12.61942000       13       0.00065600       0.20550500       0.48278100 
Al      0.00000000      13.99080000      12.61942000       13       0.00065400       0.20579600       0.48271800 
Al      2.01778000       3.91743000      13.17906000       13       0.00045800      -0.10571500       0.45667200 
Al      0.00000000      11.19264000      13.17906000       13       0.00044900      -0.10515700       0.45676500 
Al      2.01778000       1.11926000      14.60585000       13       0.00031800       0.24918300      -0.00000000 
Al      2.01778000      12.87153000      14.60585000       13       0.00000700      -0.11750500       0.00000200 
Al      0.00000000       5.59631000      14.60585000       13       0.00004300      -0.11774700      -0.00000400 
Al      0.00000000       8.39448000      14.60585000       13       0.00040000       0.24857300      -0.00000100 
Al      0.00000000      11.19264000      16.03263000       13       0.00044900      -0.10515300      -0.45676300 
Al      2.01778000       3.91743000      16.03263000       13       0.00045800      -0.10571700      -0.45668000 
Al      0.00000000      13.99080000      16.59227000       13       0.00065400       0.20579300      -0.48271400 
Al      2.01778000       6.71558000      16.59227000       13       0.00065700       0.20550800      -0.48278800 
Al      2.01778000       9.51374000      17.15191000       13       0.00011000      -0.22140300      -0.45339000 
Al      0.00000000       2.23853000      17.15191000       13       0.00010300      -0.22135200      -0.45332500 
Al      2.01778000      12.31190000      17.71152000       13      -0.00056400       0.08329300      -0.26202900 
Al      0.00000000       5.03669000      17.71152000       13      -0.00062800       0.08334400      -0.26191600 
Al      0.00000000       7.83485000      18.27115000       13      -0.00048000       0.01937200      -0.19487600 
Al      2.01778000       0.55964000      18.27115000       13      -0.00044700       0.01963200      -0.19486300 
Al      2.01778000       3.35779000      18.83079000       13       0.00036500      -0.04632400       0.00383800 
Al      0.00000000      10.63300000      18.83079000       13       0.00031700      -0.04645100       0.00366300 
Al      2.01778000       6.15595000      19.39043000       13       0.00032200      -0.00676600       0.03895600 
Al      0.00000000      13.43117000      19.39043000       13       0.00029800      -0.00634700       0.03920500 
Al      2.01778000       8.95412000      19.95007000       13      -0.00068200       0.02950300       0.01418900 
Al      0.00000000       1.67890000      19.95007000       13      -0.00075100       0.02969200       0.01419300 
Al      0.00000000       4.47705000      20.50968000       13      -0.00042200       0.00254900      -0.02080800 
Al      2.01778000      11.75226000      20.50968000       13      -0.00039200       0.00262900      -0.02083100 
Al      0.00000000       7.27521000      21.06931000       13       0.00059200       0.01701200      -0.00594300 
Al      2.01778000       0.00000000      21.06931000       13       0.00061100       0.01723500      -0.00595000 
Al      2.01778000       2.79816000      21.62895000       13       0.00040100      -0.02070900      -0.01835400 
Al      0.00000000      10.07338000      21.62895000       13       0.00038600      -0.02115200      -0.01799900 
Al      2.01778000       5.59631000      22.18859000       13      -0.00040400       0.01741800       0.01893400 
Al      0.00000000      12.87153000      22.18859000       13      -0.00038200       0.01781400       0.01860000 
Al      0.00000000       1.11926000      22.74823000       13      -0.00060600      -0.02242900       0.01396500 
Al      2.01778000       8.39448000      22.74823000       13      -0.00059600      -0.02267600       0.01395300 
Al      0.00000000       3.91743000      23.30783000       13       0.00042700      -0.00690000       0.01276400 
Al      2.01778000      11.19264000      23.30783000       13       0.00038700      -0.00694700       0.01282800 
Al      2.01778000      13.99079000      23.86747000       13       0.00068400      -0.02794700      -0.01526700 
Al      0.00000000       6.71558000      23.86747000       13       0.00074900      -0.02813900      -0.01529000 
Al      2.01778000       2.23853000      24.42711000       13      -0.00032200       0.00489400      -0.04438400 
Al      0.00000000       9.51374000      24.42711000       13      -0.00029700       0.00450300      -0.04466000 
Al      0.00000000      12.31190000      24.98675000       13      -0.00032700       0.04106100      -0.01669300 
Al      2.01778000       5.03669000      24.98675000       13      -0.00035800       0.04094400      -0.01686100 
Al      0.00000000       0.55964000      25.54638000       13       0.00048700       0.01561400       0.19488200 
Al      2.01778000       7.83485000      25.54638000       13       0.00043900       0.01536900       0.19488400 
Al      2.01778000      10.63300000      26.10599000       13       0.00057400      -0.07288700       0.26054300 
Al      0.00000000       3.35779000      26.10602000       13       0.00061800      -0.07291000       0.26036900 
Al      2.01778000      13.43117000      26.66563000       13      -0.00010900       0.22568400       0.46233300 
Al      0.00000000       6.15595000      26.66563000       13      -0.00010400       0.22570600       0.46224200 
Al      0.00000000       8.95412000      27.22527000       13      -0.00065400      -0.20067600       0.48295700 
Al      2.01778000       1.67890000      27.22527000       13      -0.00065500      -0.20048700       0.48295700 
Al      0.00000000      11.75226000      27.78491000       13      -0.00045900       0.10321600       0.44466800 
Al      2.01778000       4.47705000      27.78491000       13      -0.00044900       0.10381200       0.44455800 
96
Lattice="4.035562 0.0 0.0 0.0 14.550428 0.0 0.0 0.0 29.211692" Properties=species:S:1:pos:R:3:Z:I:1:force:R:3 energy=-352.54918004 pbc="T T T"
Al      0.00048000       2.80052000      29.20918000       13       0.00083100       0.13059300       0.00211800 
Al      2.02155000      10.07142000      29.21104000       13      -0.00144500       0.14068800      -0.00222500 
Al      4.03240000       0.00418000       0.00132000       13       0.00321400      -0.26592200       0.00016600 
Al      2.01758000       7.27752000       0.00082000       13      -0.00200800      -0.26647900       0.00301000 
Al      2.01926000       4.47532000       1.42510000       13      -0.00810700       0.10217100      -0.43790600 
Al      0.00309000      11.75525000       1.42454000       13      -0.00170900       0.08378300      -0.43874600 
Al      2.01931000       1.68035000       1.98600000       13      -0.00090700      -0.21781000      -0.47634500 
Al      4.03208000       8.95183000       1.98721000       13       0.01715900      -0.19127200      -0.49764500 
Al      4.03298000       6.15520000       2.54482000       13       0.01802800       0.21737000      -0.46269700 
Al      2.01573000      13.42395000       2.54576000       13       0.00626100       0.25778200      -0.45802800 
Al      4.03514000       3.35625000       3.10658000       13       0.01183800      -0.07323800      -0.25891600 
Al      2.02131000      10.63500000       3.10462000       13      -0.01958700      -0.08526100      -0.25746600 
Al      2.01987000       7.83244000       3.66248000       13      -0.02160700       0.01373400      -0.18667400 
Al      0.00228000       0.55854000       3.66444000       13      -0.01042600       0.01415700      -0.19633600 
Al      2.02078000       5.03494000       4.22350000       13      -0.02824800       0.04477300       0.01552800 
Al      4.03344000      12.31728000       4.22752000       13       0.00649200       0.01122300       0.00509700 
Al      0.00059000       9.51183000       4.77721000       13       0.00038100       0.01010500       0.06825400 
Al      2.01771000       2.23395000       4.78724000       13      -0.00129200       0.01057900       0.03210200 
Al      4.03155000       6.71339000       5.34433000       13       0.02701500      -0.01725600       0.00057300 
Al      2.02167000      13.98624000       5.34654000       13      -0.02599700      -0.00995400       0.00328600 
Al      2.01421000      11.19117000       5.90394000       13       0.00525600      -0.01846900      -0.01439700 
Al      4.03388000       3.91998000       5.90304000       13       0.01660800      -0.01680200      -0.01479300 
Al      2.01810000       8.39139000       6.46248000       13      -0.00522100      -0.00583600      -0.03024500 
Al      4.03347000       1.12235000       6.46016000       13       0.01335400      -0.03359000      -0.00466800 
Al      4.03022000      12.87513000       7.02034000       13       0.02346800       0.00580300       0.00617500 
Al      2.01926000       5.59869000       7.01849000       13      -0.01352700       0.01128700       0.00062300 
Al      0.00171000      10.07446000       7.58334000       13      -0.01359100      -0.01813000       0.00730100 
Al      2.01902000       2.79930000       7.58154000       13      -0.00757900      -0.01565000       0.02821900 
Al      2.01892000       0.00056000       8.14310000       13      -0.01399200       0.02195800       0.00638200 
Al      4.03455000       7.27622000       8.14294000       13       0.00463000       0.01350400       0.00377500 
Al      2.01853000      11.75155000       8.70272000       13      -0.01109300       0.01316000       0.01432500 
Al      0.00171000       4.47848000       8.70060000       13       0.00083200       0.00346500       0.01750400 
Al      0.00076000       1.68421000       9.26207000       13       0.01035100       0.01125800      -0.01398900 
Al      2.01616000       8.95462000       9.25874000       13       0.00633600       0.01693100      -0.00015600 
Al      4.03435000      13.43556000       9.82539000       13       0.01454600      -0.01993200      -0.05994900 
Al      2.01905000       6.15181000       9.82201000       13      -0.00827400       0.02045200      -0.05203600 
Al      0.00098000      10.63213000      10.38247000       13      -0.00441200      -0.04292600      -0.01336500 
Al      2.01951000       3.35966000      10.38216000       13      -0.01364800      -0.05058400      -0.00227900 
Al      2.02301000       0.55895000      10.93998000       13      -0.03331800       0.02636100       0.20186000 
Al      4.03385000       7.83099000      10.93842000       13       0.01238900       0.04229100       0.19559000 
Al      4.03487000       5.03898000      11.49715000       13       0.01496400       0.05752200       0.28146000 
Al      2.01905000      12.30922000      11.49626000       13      -0.00849700       0.09486200       0.26887400 
Al      4.03116000       2.23746000      12.06352000       13       0.02859500      -0.21609200       0.44941700 
Al      2.01901000       9.51285000      12.05811000       13      -0.01297300      -0.22170800       0.45716400 
Al      2.02307000       6.71598000      12.61927000       13      -0.02032500       0.20851200       0.48783500 
Al      4.03550000      13.99230000      12.62435000       13       0.00850400       0.20650400       0.47480300 
Al      2.01935000       3.91831000      13.18116000       13      -0.01053700      -0.10436500       0.44169400 
Al      4.03292000      11.19856000      13.17896000       13       0.00556700      -0.12378800       0.44423300 
Al      2.01665000       1.12104000      14.60830000       13      -0.00160900       0.23872000       0.00444200 
Al      2.01653000      12.86737000      14.60234000       13      -0.00060700      -0.10014400       0.00964000 
Al      0.00013000       5.59403000      14.60422000       13       0.00283000      -0.10184200       0.00138700 
Al      0.00050000       8.39794000      14.60340000       13       0.00238300       0.24146300      -0.00555100 
Al      0.00011000      11.19075000      16.02867000       13       0.00555400      -0.09483500      -0.44409200 
Al      2.01541000       3.91836000      16.03161000       13       0.00613500      -0.11030200      -0.45064600 
Al      4.03448000      13.99261000      16.59278000       13      -0.00099600       0.18949500      -0.49043000 
Al      2.01881000       6.71398000      16.59082000       13       0.00028600       0.21464800      -0.47555300 
Al      2.02137000       9.51819000      17.15021000       13      -0.01128400      -0.24587400      -0.44784700 
Al      0.00016000       2.23600000      17.15125000       13      -0.00810600      -0.21186600      -0.45793900 
Al      2.01895000      12.31217000      17.70835000       13      -0.00417100       0.08224900      -0.25419400 
Al      0.00054000       5.03630000      17.71236000       13      -0.00440400       0.07651900      -0.26775500 
Al      0.00238000       7.83184000      18.27265000       13      -0.00892800       0.03195800      -0.20118500 
Al      2.01427000       0.55997000      18.27178000       13       0.01376900       0.01444400      -0.19579000 
Al      2.01638000       3.35663000      18.82769000       13      -0.00221500      -0.04239400       0.01999400 
Al      0.00123000      10.63006000      18.83186000       13      -0.00575100      -0.02242700      -0.00695200 
Al      2.01910000       6.15379000      19.39144000       13      -0.00938600       0.00957300       0.02955000 
Al      4.03444000      13.43375000      19.39112000       13       0.00597200      -0.02027600       0.03349600 
Al      2.01492000       8.95369000      19.95000000       13       0.01566700       0.02509100       0.00335200 
Al      4.03310000       1.67955000      19.95224000       13       0.00906300       0.02682100       0.00638700 
Al      4.03127000       4.48004000      20.50768000       13       0.01627300      -0.01261900      -0.00501700 
Al      2.01673000      11.75458000      20.51072000       13       0.00872200       0.00074000      -0.02932400 
Al      4.03426000       7.27627000      21.07240000       13       0.00659100       0.01622800      -0.02109900 
Al      2.01990000      14.54813000      21.06854000       13      -0.00917700       0.02724400      -0.00192000 
Al      2.01864000       2.79792000      21.62957000       13      -0.01587100      -0.01331000      -0.02994000 
Al      0.00066000      10.07484000      21.62337000       13      -0.00679200      -0.02353700       0.01366000 
Al      2.01790000       5.59860000      22.18743000       13      -0.01228100      -0.00182100       0.02733900 
Al      0.00284000      12.87272000      22.19301000       13      -0.00496500       0.01320200       0.00951300 
Al      4.03555000       1.11993000      22.74822000       13       0.00408800      -0.02952800       0.01443200 
Al      2.01823000       8.39163000      22.74332000       13      -0.01008700       0.00425400       0.04119200 
Al      4.03366000       3.91560000      23.30850000       13      -0.00000400       0.00561400       0.01280100 
Al      2.01712000      11.19234000      23.31058000       13       0.00253100      -0.01607900       0.00270900 
Al      2.02069000      13.99256000      23.86729000       13      -0.00990600      -0.03363700       0.00321400 
Al      4.03361000       6.71557000      23.86771000       13       0.00686500      -0.02895000      -0.01598100 
Al      2.01561000       2.23921000      24.42581000       13       0.00639000       0.00325000      -0.03473300 
Al      4.03270000       9.51501000      24.42948000       13       0.01184000      -0.00421300      -0.06933100 
Al      4.03523000      12.31100000      24.98827000       13      -0.00412300       0.04998800      -0.01711800 
Al      2.01399000       5.03676000      24.98895000       13       0.01520000       0.03432600      -0.02679000 
Al      4.03544000       0.56109000      25.54688000       13       0.00161100       0.00145000       0.18732900 
Al      2.02055000       7.83362000      25.54365000       13      -0.02392500       0.01866900       0.19656500 
Al      2.01605000      10.63219000      26.10456000       13       0.00583300      -0.07793000       0.26794500 
Al      4.03505000       3.35386000      26.10919000       13      -0.00714400      -0.05607300       0.25189400 
Al      2.01512000      13.42994000      26.66748000       13       0.01442800       0.23241100       0.45263400 
Al      0.00077000       6.15446000      26.66401000       13      -0.00680900       0.22823300       0.46255800 
Al      4.03259000       8.95272000      27.22331000       13       0.00967500      -0.19982500       0.49037300 
Al      2.01941000       1.67761000      27.22508000       13      -0.00345300      -0.19778600       0.48635100 
Al      0.00343000      11.75329000      27.78278000       13      -0.01426300       0.09181700       0.44999400 
Al      2.01556000       4.48077000      27.78690000       13       0.00414900       0.09095400       0.43361900 
96
Lattice="4.035562 0.0 0.0 0.0 14.550428 0.0 0.0 0.0 29.211692" Properties=species:S:1:pos:R:3:Z:I:1:force:R:3 energy=-352.54822643 pbc="T T T"
Al      0.00096000       2.80288000      29.20667000       13      -0.00042800       0.13209700      -0.00054100 
Al      2.02533000      10.06948000      29.21038000       13      -0.00247100       0.14725200      -0.00189500 
Al      4.02924000       0.00834000       0.00265000       13      -0.00093800      -0.26602400       0.00137000 
Al      2.01738000       7.27980000       0.00164000       13      -0.00009100      -0.27423000      -0.00116000 
Al      2.02075000       4.47360000       1.42338000       13      -0.01866800       0.10239400      -0.42747200 
Al      0.00618000      11.75825000       1.42226000       13      -0.00467200       0.06757700      -0.43779100 
Al      2.02083000       1.68177000       1.98554000       13      -0.00598100      -0.23134300      -0.47622100 
Al      4.02861000       8.94953000       1.98795000       13       0.03220900      -0.18084100      -0.51163400 
Al      4.03039000       6.15446000       2.54353000       13       0.03128800       0.20961600      -0.45920700 
Al      2.01367000      13.41676000       2.54541000       13       0.01678700       0.29070800      -0.45516800 
Al      4.03473000       3.35471000       3.10746000       13       0.02232500      -0.07208400      -0.25634700 
Al      2.02484000      10.63699000       3.10352000       13      -0.03868100      -0.09469700      -0.25810300 
Al      2.02196000       7.83003000       3.65963000       13      -0.04579800       0.00966300      -0.18449600 
Al      0.00456000       0.55744000       3.66355000       13      -0.01195600       0.01189400      -0.20018000 
Al      2.02378000       5.03319000       4.22206000       13      -0.05058200       0.04400300       0.00879100 
Al      4.03131000      12.32266000       4.23009000       13       0.02259400      -0.01510200      -0.00613500 
Al      0.00117000       9.50992000       4.76984000       13      -0.00057500       0.01183100       0.09653200 
Al      2.01764000       2.22937000       4.78989000       13      -0.00639000       0.02068200       0.01914000 
Al      4.02754000       6.71120000       5.34444000       13       0.05389300      -0.00440100      -0.01083500 
Al      2.02555000      13.98169000       5.34886000       13      -0.04926300       0.01152900      -0.00695500 
Al      2.01063000      11.18971000       5.90403000       13       0.01586800      -0.02809900      -0.01697000 
Al      4.03220000       3.92252000       5.90222000       13       0.03605100      -0.02942700      -0.01627600 
Al      2.01841000       8.38831000       6.46149000       13      -0.00862300       0.00809500      -0.03833800 
Al      4.03138000       1.12543000       6.45686000       13       0.02866400      -0.04077300       0.01899800 
Al      4.02487000      12.87873000       7.01757000       13       0.05042500      -0.00602100       0.03633800 
Al      2.02073000       5.60108000       7.01388000       13      -0.02287200      -0.00453100       0.02359000 
Al      0.00342000      10.07553000       7.58393000       13      -0.02665100      -0.01680200      -0.00999500 
Al      2.02026000       2.80044000       7.58035000       13      -0.01482400      -0.01617000       0.03607500 
Al      2.02005000       0.00113000       8.14382000       13      -0.03028600       0.02614900       0.00665300 
Al      4.03353000       7.27723000       8.14350000       13       0.01263600       0.00628800       0.00224300 
Al      2.01928000      11.75084000       8.70343000       13      -0.01608900       0.02296500       0.00945100 
Al      0.00342000       4.47990000       8.69918000       13       0.00407800       0.00634400       0.00905400 
Al      0.00153000       1.68953000       9.26252000       13       0.01803800       0.00165300      -0.01565500 
Al      2.01454000       8.95512000       9.25585000       13       0.01265600       0.00797100       0.01028200 
Al      4.03313000      13.43995000       9.82951000       13       0.03400000      -0.02604100      -0.07873200 
Al      2.02031000       6.14766000       9.82275000       13      -0.01577700       0.03801600      -0.06988900 
Al      0.00197000      10.63126000      10.38403000       13      -0.00334400      -0.04154500      -0.02067900 
Al      2.02123000       3.36153000      10.38343000       13      -0.02875000      -0.06137400      -0.00209800 
Al      2.02823000       0.55825000      10.93944000       13      -0.06165900       0.03033900       0.20794800 
Al      4.03215000       7.82713000      10.93632000       13       0.02740100       0.05605200       0.19688600 
Al      4.03419000       5.04129000      11.49414000       13       0.03038600       0.04445300       0.29269700 
Al      2.02031000      12.30655000      11.49237000       13      -0.01828800       0.10479400       0.27416600 
Al      4.02676000       2.23637000      12.06729000       13       0.04781200      -0.20436800       0.44384300 
Al      2.02023000       9.51194000      12.05647000       13      -0.01874000      -0.22230700       0.45912100 
Al      2.02836000       6.71640000      12.61916000       13      -0.03164200       0.21152100       0.49095200 
Al      4.03543000      13.99381000      12.62931000       13       0.01587500       0.20644100       0.45475700 
Al      2.02091000       3.91919000      13.18331000       13      -0.02184200      -0.10559600       0.42663300 
Al      4.03028000      11.20447000      13.17889000       13       0.01455800      -0.14114100       0.43546200 
Al      2.01551000       1.12284000      14.61075000       13      -0.00034300       0.22796200       0.00025000 
Al      2.01527000      12.86320000      14.59883000       13      -0.00183900      -0.08147500       0.01560700 
Al      0.00027000       5.59174000      14.60260000       13       0.00513800      -0.08847400       0.00502000 
Al      0.00099000       8.40143000      14.60096000       13       0.00286900       0.22784100      -0.00606900 
Al      0.00023000      11.18886000      16.02468000       13       0.00838500      -0.08517000      -0.42514600 
Al      2.01303000       3.91928000      16.03056000       13       0.01487800      -0.11491700      -0.44186900 
Al      4.03341000      13.99443000      16.59325000       13      -0.00233600       0.17643000      -0.49794200 
Al      2.01985000       6.71240000      16.58932000       13      -0.00317100       0.22826600      -0.47346100 
Al      2.02495000       9.52263000      17.14846000       13      -0.01730700      -0.27425200      -0.44102100 
Al      0.00032000       2.23346000      17.15055000       13      -0.01690300      -0.20446900      -0.45720700 
Al      2.02011000      12.31245000      17.70517000       13      -0.00781400       0.08154600      -0.24800900 
Al      0.00108000       5.03591000      17.71318000       13      -0.00761800       0.07160700      -0.27261900 
Al      0.00476000       7.82883000      18.27414000       13      -0.01312600       0.03733100      -0.20445500 
Al      2.01076000       0.56031000      18.27239000       13       0.02306900       0.01284100      -0.19590800 
Al      2.01498000       3.35546000      18.82459000       13      -0.00121600      -0.04259900       0.03237800 
Al      0.00245000      10.62712000      18.83292000       13      -0.00700300      -0.00283500      -0.01672300 
Al      2.02042000       6.15163000      19.39246000       13      -0.01440100       0.02367800       0.02100700 
Al      4.03331000      13.43633000      19.39181000       13       0.00592700      -0.03449900       0.03227500 
Al      2.01206000       8.95327000      19.94994000       13       0.03276600       0.02229000      -0.00674400 