42
Lattice="4.035563 0.0 0.0 0.0 6.380785 0.0 0.0 0.0 28.677975" Properties=species:S:1:pos:R:3:Z:I:1:force:R:3 energy=-155.01867127 pbc="T T T"
Al      2.01778000       4.46655000       0.00000000       13      -0.00121000      -0.32884900       0.00000300 
Al      0.00000000       0.00000000       0.00000000       13       0.00045000       0.28068800       0.00000000 
Al      2.01778000       1.91424000       1.42679000       13       0.00040200      -0.19203300      -0.38576900 
Al      0.00000000       3.82847000       2.06487000       13      -0.00104300       0.15083400      -0.38318600 
Al      2.01778000       5.74271000       2.70296000       13       0.00000900       0.14869800      -0.41310500 
Al      0.00000000       1.27616000       3.34101000       13      -0.00053900      -0.08524000      -0.24497400 
Al      2.01778000       3.19039000       3.97910000       13       0.00078000      -0.00768100       0.06784700 
Al      0.00000000       5.10463000       4.61718000       13      -0.00049900      -0.01433500      -0.03392400 
Al      2.01778000       0.63808000       5.25527000       13       0.00048800      -0.01714100       0.02508500 
Al      0.00000000       2.55231000       5.89332000       13       0.00006100      -0.00563700       0.01904600 
Al      2.01778000       4.46655000       6.53141000       13       0.00096600      -0.01440600      -0.01536500 
Al      0.00000000       0.00000000       7.16949000       13       0.00000000       0.00000000       0.00000400 
Al      2.01778000       1.91424000       7.80758000       13      -0.00096600       0.01440600       0.01537200 
Al      0.00000000       3.82847000       8.44566000       13      -0.00006100       0.00563800      -0.01904100 
Al      2.01778000       5.74271000       9.08372000       13      -0.00048800       0.01714100      -0.02508300 
Al      0.00000000       1.27616000       9.72180000       13       0.00049900       0.01433500       0.03392200 
Al      2.01778000       3.19039000      10.35989000       13      -0.00078000       0.00768100      -0.06785100 
Al      0.00000000       5.10463000      10.99797000       13       0.00053900       0.08524000       0.24496900 
Al      2.01778000       0.63808000      11.63603000       13      -0.00000900      -0.14869700       0.41310100 
Al      0.00000000       2.55231000      12.27412000       13       0.00104300      -0.15083400       0.38318400 
Al      2.01778000       4.46655000      12.91220000       13      -0.00040200       0.19203300       0.38576800 
Al      2.01778000       1.91424000      14.33899000       13       0.00121000       0.32885000      -0.00000200 
Al      0.00000000       0.00000000      14.33899000       13      -0.00045000      -0.28068800      -0.00000100 
Al      2.01778000       4.46655000      15.76577000       13      -0.00040200       0.19203300      -0.38577400 
Al      0.00000000       2.55231000      16.40386000       13       0.00104300      -0.15083400      -0.38319100 
Al      2.01778000       0.63808000      17.04194000       13      -0.00000900      -0.14869800      -0.41310800 
Al      0.00000000       5.10463000      17.68000000       13       0.00053900       0.08524100      -0.24497300 
Al      2.01778000       3.19039000      18.31809000       13      -0.00078000       0.00768100       0.06785000 
Al      0.00000000       1.27616000      18.95617000       13       0.00049900       0.01433500      -0.03391800 
Al      2.01778000       5.74271000      19.59426000       13      -0.00048800       0.01714100       0.02509200 
Al      0.00000000       3.82847000      20.23231000       13      -0.00006100       0.00563800       0.01905200 
Al      2.01778000       1.91424000      20.87040000       13      -0.00096600       0.01440600      -0.01536000 
Al      0.00000000       0.00000000      21.50848000       13       0.00000000       0.00000000       0.00000500 
Al      2.01778000       4.46655000      22.14657000       13       0.00096600      -0.01440600       0.01536900 
Al      0.00000000       2.55231000      22.78465000       13       0.00006100      -0.00563800      -0.01904600 
Al      2.01778000       0.63808000      23.42271000       13       0.00048800      -0.01714100      -0.02509000 
Al      0.00000000       5.10463000      24.06079000       13      -0.00049900      -0.01433500       0.03391600 
Al      2.01778000       3.19039000      24.69888000       13       0.00078000      -0.00768000      -0.06785400 
Al      0.00000000       1.27616000      25.33696000       13      -0.00053900      -0.08524000       0.24496800 
Al      2.01778000       5.74271000      25.97502000       13       0.00000900       0.14869700       0.41310400 
Al      0.00000000       3.82847000      26.61310000       13      -0.00104300       0.15083400       0.38318700 
Al      2.01778000       1.91424000      27.25119000       13       0.00040200      -0.19203400       0.38577300 
42
Lattice="4.035563 0.0 0.0 0.0 6.380785 0.0 0.0 0.0 28.677975" Properties=species:S:1:pos:R:3:Z:I:1:force:R:3 energy=-155.02018765 pbc="T T T"
Al      2.01822000       4.46869000      28.67565000       13       0.00477000      -0.33602100      -0.00268700 
Al      0.00349000       6.37899000      28.67737000       13      -0.00099900       0.28914500       0.00236400 
Al      2.01486000       1.91811000       1.42798000       13       0.00882800      -0.20360700      -0.39720800 
Al      4.03538000       3.83064000       2.06560000       13      -0.00074500       0.15180900      -0.38762300 
Al      2.01915000       5.74111000       2.70140000       13      -0.00392800       0.16868400      -0.40789800 
Al      0.00286000       1.27891000       3.33895000       13      -0.01562300      -0.09413900      -0.24415600 
Al      2.01919000       3.19175000       3.97875000       13      -0.00610900      -0.01456500       0.07343200 
Al      4.03235000       5.10253000       4.61795000       13       0.01552600      -0.00318200      -0.03209700 
Al      2.01539000       0.63736000       5.25416000       13       0.00870800      -0.02816600       0.01206400 
Al      4.03366000       2.54562000       5.89308000       13       0.00804400       0.02666500       0.01057500 
Al      2.01740000       4.46514000       6.53227000       13       0.00160000      -0.01254000      -0.02678800 
Al      0.00327000       0.00185000       7.16852000       13      -0.00500900      -0.01862000       0.01096000 
Al      2.01971000       1.91200000       7.80498000       13      -0.01122700       0.01573200       0.02884500 
Al      0.00211000       3.82745000       8.44487000       13      -0.00447300       0.01224300      -0.02766500 
Al      2.02056000       5.74108000       9.08238000       13      -0.00952600       0.03384300      -0.01394100 
Al      4.03360000       1.28113000       9.72419000       13       0.01527900      -0.02143800       0.02444700 
Al      2.01832000       3.18863000      10.35306000       13       0.00374300       0.01181800      -0.02889700 
Al      4.03550000       5.10040000      11.00045000       13      -0.00429100       0.08997200       0.23378800 
Al      2.01407000       0.63604000      11.63617000       13       0.01284700      -0.14607600       0.40436900 
Al      0.00360000       2.54809000      12.27629000       13      -0.01938300      -0.14007200       0.38116100 
Al      2.01447000       4.46521000      12.91231000       13       0.01115800       0.18772200       0.37523700 
Al      2.01622000       1.91662000      14.33823000       13       0.00264300       0.30624000      -0.00103300 
Al      0.00029000       6.37791000      14.33807000       13      -0.00466800      -0.27068500       0.00118400 
Al      2.01585000       4.46942000      15.76269000       13      -0.00104000       0.19022300      -0.38076600 
Al      4.03062000       2.55563000      16.40127000       13       0.01009900      -0.14748400      -0.38174200 
Al      2.01915000       0.64027000      17.03764000       13      -0.00569100      -0.15415500      -0.39983400 
Al      0.00158000       5.10563000      17.68053000       13      -0.01066000       0.08541100      -0.24865200 
Al      2.01893000       3.19145000      18.31698000       13      -0.00604500       0.00763100       0.06274100 
Al      0.00105000       1.27668000      18.95683000       13       0.00297300       0.01159000      -0.04697200 
Al      2.01684000       5.74364000      19.59477000       13       0.00842200       0.02106100       0.01904900 
Al      0.00069000       3.82781000      20.23296000       13      -0.00161700       0.01315500       0.01758300 
Al      2.01936000       1.91556000      20.86908000       13      -0.00524800       0.01343900      -0.00568500 
Al      0.00071000       0.00491000      21.50890000       13      -0.00145600      -0.01317500       0.00293700 
Al      2.01628000       4.46701000      22.14390000       13       0.01217600      -0.01306000       0.03291600 
Al      4.03444000       2.55638000      22.78847000       13       0.01073300      -0.02376300      -0.02733000 
Al      2.01895000       0.63424000      23.42340000       13       0.00564700      -0.00422400      -0.02792600 
Al      0.00091000       5.10383000      24.06224000       13      -0.00514100      -0.00531400       0.01500100 
Al      2.01938000       3.19213000      24.70004000       13       0.00239100      -0.02283800      -0.07621400 
Al      0.00483000       1.27551000      25.33645000       13      -0.02063700      -0.08106100       0.24802200 
Al      2.01620000       5.73915000      25.97308000       13       0.00875700       0.16891200       0.41870200 
Al      4.03493000       3.83060000      26.61031000       13       0.00053300       0.13860500       0.39662200 
Al      2.01895000       1.91173000      27.24758000       13       0.00622900      -0.18239100       0.39889800 
42
Lattice="4.035563 0.0 0.0 0.0 6.380785 0.0 0.0 0.0 28.677975" Properties=species:S:1:pos:R:3:Z:I:1:force:R:3 energy=-155.0194642 pbc="T T T"
Al      2.01867000       4.47079000      28.67332000       13       0.01074900      -0.34432100      -0.00334100 
Al      0.00698000       6.37722000      28.67676000       13      -0.01595100       0.29725200       0.00265100 
Al      2.01194000       1.92196000       1.42913000       13       0.01952900      -0.21068600      -0.40746500 
Al      4.03519000       3.83282000       2.06629000       13       0.00232600       0.14968400      -0.39819000 
Al      2.02052000       5.73953000       2.69981000       13      -0.00812700       0.18752000      -0.40397900 
Al      0.00571000       1.28165000       3.33687000       13      -0.02707000      -0.11072400      -0.23864000 
Al      2.02060000       3.19310000       3.97841000       13      -0.01211100      -0.01821500       0.08068300 
Al      4.02913000       5.10044000       4.61871000       13       0.02770700       0.00750900      -0.02775400 
Al      2.01300000       0.63664000       5.25305000       13       0.02060500      -0.03718100      -0.00262600 
Al      4.03176000       2.53893000       5.89284000       13       0.01474000       0.04933300       0.00298100 
Al      2.01701000       4.46372000       6.53312000       13       0.00415100      -0.01698900      -0.03350300 
Al      0.00653000       0.00371000       7.16754000       13      -0.02065700      -0.03736000       0.02097300 
Al      2.02165000       1.90977000       7.80238000       13      -0.01446500       0.01463100       0.03387100 
Al      0.00422000       3.82644000       8.44408000       13      -0.00688200       0.02455600      -0.03759400 
Al      2.02333000       5.73947000       9.08104000       13      -0.01191000       0.04120000      -0.00684800 
Al      4.03163000       1.28610000       9.72657000       13       0.02032200      -0.06181900       0.01691500 
Al      2.01886000       3.18686000      10.34622000       13       0.00742600       0.02517200      -0.00209100 
Al      4.03543000       5.09618000      11.00294000       13      -0.00916000       0.09968600       0.22580600 
Al      2.01036000       0.63399000      11.63634000       13       0.02829300      -0.14345400       0.39740100 
Al      0.00719000       2.54386000      12.27850000       13      -0.04697500      -0.12146500       0.38098400 
Al      2.01117000       4.46389000      12.91246000       13       0.02346400       0.17799900       0.36441500 
Al      2.01467000       1.91904000      14.33747000       13       0.00566100       0.29349000      -0.00399900 
Al      0.00058000       6.37501000      14.33716000       13      -0.00879400      -0.26326400      -0.00336000 
Al      2.01391000       4.47232000      15.75956000       13      -0.00087800       0.19136100      -0.36765400 
Al      4.02567000       2.55894000      16.39864000       13       0.01804500      -0.14278900      -0.37773500 
Al      2.02051000       0.64244000      17.03330000       13      -0.01438800      -0.15423500      -0.38368600 
Al      0.00316000       5.10665000      17.68103000       13      -0.01353400       0.08682000      -0.25136400 
Al      2.02007000       3.19250000      18.31588000       13      -0.01085700       0.00976900       0.05766000 
Al      0.00210000       1.27720000      18.95749000       13      -0.00007700       0.01282300      -0.05995900 
Al      2.01590000       5.74457000      19.59529000       13       0.01696100       0.02317300       0.00894500 
Al      0.00139000       3.82715000      20.23362000       13      -0.00386500       0.01952300       0.01396000 
Al      2.02095000       1.91688000      20.86777000       13      -0.00954100       0.01303900       0.00385500 
Al      0.00141000       0.00982000      21.50931000       13      -0.00472200      -0.01811200       0.00621800 
Al      2.01478000       4.46747000      22.14123000       13       0.01619100      -0.00796800       0.03877000 
Al      4.03332000       2.56044000      22.79229000       13       0.01544700      -0.04210000      -0.04618700 
Al      2.02012000       0.63041000      23.42409000       13       0.00393600       0.01489200      -0.02866200 
Al      0.00182000       5.10303000      24.06370000       13      -0.01285800       0.00062200      -0.00062000 
Al      2.02098000       3.19386000      24.70120000       13       0.00062200      -0.04020900      -0.08472300 
Al      0.00967000       1.27485000      25.33596000       13      -0.03737300      -0.07815900       0.24504200 
Al      2.01462000       5.73560000      25.97118000       13       0.02064400       0.19071300       0.42247400 
Al      4.03429000       3.83274000      26.60756000       13       0.00725300       0.11749600       0.41754000 
Al      2.02012000       1.90921000      27.24401000       13       0.01205100      -0.18027200       0.40623300 
42
Lattice="4.035563 0.0 0.0 0.0 6.380785 0.0 0.0 0.0 28.677975" Properties=species:S:1:pos:R:3:Z:I:1:force:R:3 energy=-155.01652346 pbc="T T T"
Al      2.01911000       4.47287000      28.67100000       13       0.01553800      -0.35234300      -0.00436000 
Al      0.01047000       6.37548000      28.67615000       13      -0.02021900       0.30194600       0.00401200 
Al      2.00902000       1.92580000       1.43025000       13       0.03137300      -0.22501000      -0.42170100 
Al      4.03501000       3.83501000       2.06694000       13       0.00161300       0.14213800      -0.40870400 
Al      2.02189000       5.73797000       2.69818000       13      -0.01521600       0.20114600      -0.39925000 
Al      0.00857000       1.28438000       3.33477000       13      -0.04847800      -0.12805400      -0.23454300 
Al      2.02201000       3.19445000       3.97808000       13      -0.02374200      -0.02792000       0.08935900 
Al      4.02592000       5.09834000       4.61946000       13       0.04091900       0.01537500      -0.02623000 
Al      2.01061000       0.63591000       5.25194000       13       0.02975700      -0.04487800      -0.01223200 
Al      4.02986000       2.53225000       5.89260000       13       0.02266500       0.07803300       0.00193200 
Al      2.01662000       4.46230000       6.53398000       13       0.00633900      -0.01975800      -0.03892400 
Al      0.00980000       0.00556000       7.16657000       13      -0.03221900      -0.05552800       0.03045600 
Al      2.02358000       1.90754000       7.79979000       13      -0.01720700       0.01275200       0.03987900 
Al      0.00633000       3.82543000       8.44328000       13      -0.00902800       0.03086300      -0.04592100 
Al      2.02610000       5.73785000       9.07970000       13      -0.02365700       0.05530500       0.00347100 
Al      4.02967000       1.29106000       9.72896000       13       0.02876600      -0.09589500       0.00920400 
Al      2.01941000       3.18510000      10.33939000       13       0.00929700       0.03320200       0.02728000 
Al      4.03536000       5.09197000      11.00545000       13      -0.01276500       0.10628500       0.21478700 
Al      2.00665000       0.63193000      11.63654000       13       0.03792200      -0.14473400       0.39357200 
Al      0.01078000       2.53961000      12.28075000       13      -0.07471500      -0.11055200       0.37383700 
Al      2.00786000       4.46258000      12.91264000       13       0.03431800       0.17518800       0.35320200 
Al      2.01311000       1.92148000      14.33672000       13       0.00866600       0.28153400      -0.00316500 
Al      0.00087000       6.37209000      14.33625000       13      -0.01285500      -0.25865800      -0.00508900 
Al      2.01197000       4.47522000      15.75641000       13      -0.00147600       0.19100200      -0.35158800 
Al      4.02073000       2.56223000      16.39598000       13       0.04370900      -0.13915900      -0.36397100 
Al      2.02187000       0.64460000      17.02893000       13      -0.01645800      -0.15420800      -0.36965800 
Al      0.00474000       5.10767000      17.68151000       13      -0.02353600       0.08762900      -0.25688700 
Al      2.02122000       3.19356000      18.31479000       13      -0.01940600       0.00803000       0.05633900 
Al      0.00315000       1.27773000      18.95814000       13      -0.00067200       0.01148600      -0.07344500 
Al      2.01496000       5.74551000      19.59582000       13       0.02511700       0.02333800       0.00041900 
Al      0.00208000       3.82649000      20.23427000       13      -0.01362400       0.03276000       0.01147100 
Al      2.02253000       1.91820000      20.86645000       13      -0.01744700       0.01400400       0.01310700 
Al      0.00212000       0.01473000      21.50973000       13      -0.01318700      -0.03533500       0.00935200 
Al      2.01329000       4.46792000      22.13856000       13       0.02193800      -0.00462800       0.04987500 
Al      4.03219000       2.56450000      22.79610000       13       0.02304100      -0.05115300      -0.05098600 
Al      2.02129000       0.62657000      23.42478000       13       0.00522500       0.04617300      -0.03650300 
Al      0.00273000       5.10223000      24.06515000       13      -0.01536000       0.00589700      -0.01553900 
Al      2.02258000       3.19559000      24.70235000       13      -0.00393300      -0.05954500      -0.09710800 
Al      0.01449000       1.27418000      25.33549000       13      -0.05245200      -0.08215300       0.24312300 
Al      2.01305000       5.73207000      25.96932000       13       0.02992500       0.20549500       0.42340200 
Al      4.03366000       3.83490000      26.60484000       13       0.00842100       0.09929800       0.43007800 
Al      2.02130000       1.90667000      27.24047000       13       0.01675300      -0.17613700       0.41672600 
42
Lattice="4.035563 0.0 0.0 0.0 6.380785 0.0 0.0 0.0 28.677975" Properties=species:S:1:pos:R:3:Z:I:1:force:R:3 energy=-155.0112496 pbc="T T T"
Al      2.01955000       4.47491000      28.66867000       13       0.02340400      -0.36017300      -0.00547600 
Al      0.01395000       6.37376000      28.67555000       13      -0.02475100       0.30445400       0.00457000 
Al      2.00610000       1.92961000       1.43133000       13       0.03862000      -0.22788800      -0.43185800 
Al      4.03482000       3.83721000       2.06756000       13       0.00657100       0.13520400      -0.41920700 
Al      2.02326000       5.73642000       2.69652000       13      -0.02176800       0.22014900      -0.39726600 
Al      0.01141000       1.28709000       3.33265000       13      -0.06266100      -0.14284400      -0.22769900 
Al      2.02342000       3.19580000       3.97776000       13      -0.03087700      -0.03468700       0.09942200 
Al      4.02271000       5.09625000       4.62022000       13       0.05726900       0.02776700      -0.02224100 
Al      2.00822000       0.63519000       5.25083000       13       0.04150700      -0.05051800      -0.02523900 
Al      4.02797000       2.52557000       5.89235000       13       0.02989900       0.10668200      -0.00276000 
Al      2.01624000       4.46089000       6.53483000       13       0.01150200      -0.01949700      -0.04702000 
Al      0.01306000       0.00740000       7.16560000       13      -0.04043800      -0.06929600       0.03978800 
Al      2.02551000       1.90531000       7.79720000       13      -0.02664000       0.01905500       0.05049400 
Al      0.00844000       3.82442000       8.44248000       13      -0.01406700       0.03773800      -0.05293000 
Al      2.02887000       5.73624000       9.07835000       13      -0.03424500       0.06712900       0.01255700 
Al      4.02770000       1.29602000       9.73135000       13       0.03282000      -0.13212500       0.00043100 
Al      2.01995000       3.18334000      10.33255000       13       0.00973900       0.03799600       0.05094100 
Al      4.03529000       5.08776000      11.00799000       13      -0.01755200       0.11909400       0.19538100 
Al      2.00294000       0.62986000      11.63679000       13       0.05613600      -0.14079200       0.38482400 
Al      0.01437000       2.53536000      12.28303000       13      -0.09368900      -0.09948300       0.36657900 
Al      2.00456000       4.46129000      12.91285000       13       0.04600900       0.17378700       0.34501000 
Al      2.01156000       1.92395000      14.33596000       13       0.01746900       0.26525300      -0.00574900 
Al      0.00116000       6.36914000      14.33533000       13      -0.02283200      -0.24935400      -0.00497800 
Al      2.01004000       4.47815000      15.75322000       13      -0.00251200       0.19157400      -0.33632800 
Al      4.01579000       2.56551000      16.39329000       13       0.08230500      -0.14318600      -0.35139500 
Al      2.02323000       0.64675000      17.02453000       13      -0.02762000      -0.15862100      -0.35511000 
Al      0.00631000       5.10870000      17.68197000       13      -0.02602000       0.09197400      -0.25739200 
Al      2.02236000       3.19462000      18.31370000       13      -0.02714900       0.00670700       0.05448300 
Al      0.00420000       1.27825000      18.95879000       13       0.00177300       0.01322700      -0.08537600 
Al      2.01403000       5.74645000      19.59634000       13       0.03173600       0.02631800      -0.00571700 
Al      0.00277000       3.82584000      20.23493000       13      -0.01443200       0.04363700       0.00729100 
Al      2.02411000       1.91952000      20.86514000       13      -0.02358600       0.00985400       0.03086400 
Al      0.00283000       0.01964000      21.51014000       13      -0.01437200      -0.05420800       0.00766400 
Al      2.01179000       4.46838000      22.13590000       13       0.02579700      -0.00368800       0.05561800 
Al      4.03107000       2.56856000      22.79991000       13       0.03241400      -0.07015300      -0.06246400 
Al      2.02247000       0.62274000      23.42546000       13       0.00968400       0.06535000      -0.03986600 
Al      0.00363000       5.10143000      24.06661000       13      -0.01898600       0.01292300      -0.03108300 
Al      2.02417000       3.19732000      24.70349000       13      -0.00684400      -0.07172800      -0.10754800 
Al      0.01932000       1.27351000      25.33505000       13      -0.06349900      -0.08138700       0.24069100 
Al      2.01147000       5.72856000      25.96750000       13       0.04363100       0.21744500       0.42546700 
Al      4.03302000       3.83706000      26.60216000       13       0.01125900       0.08612900       0.44490500 
Al      2.02247000       1.90412000      27.23698000       13       0.01884600      -0.17375700       0.42465300 
42
Lattice="4.035563 0.0 0.0 0.0 6.380785 0.0 0.0 0.0 28.677975" Properties=species:S:1:pos:R:3:Z:I:1:force:R:3 energy=-155.00348283 pbc="T T T"
Al      2.02000000       4.47693000      28.66635000       13       0.02889400      -0.36961900      -0.00027800 
Al      0.01744000       6.37207000      28.67494000       13      -0.03037200       0.31257200       0.00885900 
Al      2.00318000       1.93341000       1.43238000       13       0.04904200      -0.23304400      -0.44253400 
Al      4.03464000       3.83943000       2.06814000       13       0.00484900       0.13280100      -0.42457900 
Al      2.02463000       5.73489000       2.69482000       13      -0.02691900       0.23830800      -0.39348100 
Al      0.01426000       1.28980000       3.33050000       13      -0.07713500      -0.16206600      -0.22569200 
Al      2.02482000       3.19714000       3.97745000       13      -0.04020500      -0.03958400       0.10887100 
Al      4.01951000       5.09416000       4.62097000       13       0.06820900       0.03509100      -0.02322000 
Al      2.00584000       0.63445000       5.24971000       13       0.05172500      -0.05580800      -0.03579500 
Al      4.02607000       2.51890000       5.89211000       13       0.04092600       0.13010800      -0.00619400 
Al      2.01586000       4.45947000       6.53567000       13       0.01633400      -0.02413400      -0.05647900 
Al      0.01632000       0.00924000       7.16464000       13      -0.04689900      -0.08691000       0.05375700 
Al      2.02743000       1.90308000       7.79461000       13      -0.03438400       0.02039200       0.06199900 
Al      0.01054000       3.82341000       8.44168000       13      -0.01424600       0.05032600      -0.06220200 
Al      2.03164000       5.73463000       9.07701000       13      -0.04336900       0.07462000       0.02676700 
Al      4.02575000       1.30097000       9.73373000       13       0.04028500      -0.17126700      -0.00995500 
Al      2.02049000       3.18158000      10.32573000       13       0.00984700       0.03933400       0.08815800 
Al      4.03522000       5.08357000      11.01054000       13      -0.02485300       0.13585200       0.17829500 
Al      1.99924000       0.62777000      11.63706000       13       0.06804800      -0.14106700       0.37409300 
Al      0.01794000       2.53109000      12.28534000       13      -0.11277600      -0.08544800       0.36427200 
Al      2.00126000       4.46002000      12.91309000       13       0.06023200       0.16838700       0.33267000 
Al      2.01000000       1.92644000      14.33520000       13       0.02412000       0.25147600      -0.00647500 
Al      0.00144000       6.36618000      14.33442000       13      -0.02306100      -0.23272300      -0.00037900 
Al      2.00810000       4.48109000      15.75001000       13      -0.00373800       0.18987600      -0.32958000 
Al      4.01086000       2.56878000      16.39057000       13       0.10758700      -0.15052200      -0.35017500 
Al      2.02459000       0.64888000      17.02009000       13      -0.03343400      -0.16165200      -0.34178700 
Al      0.00789000       5.10974000      17.68241000       13      -0.03297000       0.09624200      -0.25668700 
Al      2.02350000       3.19567000      18.31262000       13      -0.03668000       0.00769200       0.05119100 
Al      0.00526000       1.27878000      18.95943000       13       0.00152300       0.01279600      -0.10021600 
Al      2.01309000       5.74739000      19.59686000       13       0.04323400       0.02901700      -0.01347000 
Al      0.00346000       3.82518000      20.23558000       13      -0.01745600       0.05263300       0.00591900 
Al      2.02569000       1.92085000      20.86383000       13      -0.03222700       0.01130900       0.04371600 
Al      0.00353000       0.02454000      21.51056000       13      -0.00678200      -0.06648300       0.01463300 
Al      2.01030000       4.46884000      22.13325000       13       0.03410500       0.00227500       0.06610100 
Al      4.02996000       2.57261000      22.80371000       13       0.03586700      -0.08574300      -0.07018400 
Al      2.02364000       0.61892000      23.42615000       13       0.01262800       0.08160400      -0.04339500 
Al      0.00454000       5.10063000      24.06806000       13      -0.02793900       0.02505100      -0.04450300 
Al      2.02577000       3.19904000      24.70462000       13      -0.00734200      -0.08630600      -0.11947200 
Al      0.02414000       1.27283000      25.33462000       13      -0.08463500      -0.08362300       0.23955800 
Al      2.00990000       5.72507000      25.96571000       13       0.05189600       0.23511700       0.42960100 
Al      4.03239000       3.83923000      26.59953000       13       0.01888300       0.07199500       0.45897200 
Al      2.02365000       1.90155000      27.23352000       13       0.02323300      -0.16807200       0.43651500 
42
Lattice="4.035563 0.0 0.0 0.0 6.380785 0.0 0.0 0.0 28.677975" Properties=species:S:1:pos:R:3:Z:I:1:force:R:3 energy=-154.99356299 pbc="T T T"
Al      2.02045000       4.47891000      28.66402000       13       0.03127300      -0.38122000       0.00499500 
Al      0.02092000       6.37041000      28.67433000       13      -0.03752000       0.32059100       0.01060400 