70
Lattice="4.035563 0.0 0.0 0.0 10.288706 0.0 0.0 0.0 29.450315" Properties=species:S:1:pos:R:3:Z:I:1:force:R:3 energy=-257.98515755 pbc="T T T"
Al      0.00000000       6.33152000       0.00000000       13       0.00122700      -0.15225300      -0.00001400 
Al      2.01778000       8.31011000       0.00000000       13      -0.00049800       0.09957900      -0.00000700 
Al      0.00000000       0.00000000       0.00000000       13      -0.00010000       0.01671900      -0.00000200 
Al      2.01778000       1.97860000       0.00000000       13      -0.00043800       0.27163600      -0.00000300 
Al      0.00000000       3.95719000       1.42678000       13      -0.00030800      -0.45925000      -0.23846900 
Al      2.01778000       5.93579000       1.82250000       13      -0.00125300      -0.07588000       0.06972700 
Al      0.00000000       7.91439000       2.21823000       13      -0.00107700       0.35833200      -0.14039700 
Al      2.01778000       9.89298000       2.61395000       13       0.00090200       0.15005300      -0.49420400 
Al      0.00000000       1.58288000       3.00967000       13       0.00139200       0.01751700      -0.44869000 
Al      2.01778000       3.56148000       3.40540000       13       0.00055200      -0.09539000      -0.18191200 
Al      0.00000000       5.54008000       3.80109000       13       0.00006900       0.03945800       0.12511100 
Al      2.01778000       7.51867000       4.19682000       13       0.00069300      -0.04725000      -0.00305900 
Al      0.00000000       9.49727000       4.59254000       13      -0.00023100      -0.00006100       0.01572100 
Al      2.01778000       1.18716000       4.98826000       13       0.00007100       0.01428000      -0.04454900 
Al      0.00000000       3.16575000       5.38399000       13      -0.00100800      -0.02240000       0.01739500 
Al      2.01778000       5.14435000       5.77971000       13       0.00218700      -0.00293700      -0.02104300 
Al      0.00000000       7.12295000       6.17541000       13      -0.00069900      -0.02924000      -0.07464800 
Al      2.01778000       9.10154000       6.57113000       13      -0.00047600       0.00562400      -0.00609600 
Al      0.00000000       0.79144000       6.96685000       13       0.00086200       0.00341700      -0.02028800 
Al      2.01778000       2.77004000       7.36258000       13      -0.00000000       0.00570500      -0.00003400 
Al      0.00000000       4.74863000       7.75830000       13      -0.00086200      -0.01097600       0.02047400 
Al      2.01778000       6.72723000       8.15403000       13       0.00047800      -0.00772700       0.00271500 
Al      0.00000000       8.70583000       8.54975000       13       0.00069900       0.02310800       0.06634500 
Al      2.01778000       0.39572000       8.94544000       13      -0.00218800       0.00904900       0.02761600 
Al      0.00000000       2.37431000       9.34117000       13       0.00100800       0.02564600      -0.01196400 
Al      2.01778000       4.35291000       9.73689000       13      -0.00007100      -0.01612400       0.03681100 
Al      0.00000000       6.33152000      10.13262000       13       0.00023100      -0.00128100      -0.03257100 
Al      2.01778000       8.31011000      10.52834000       13      -0.00069300       0.03877600      -0.00406100 
Al      0.00000000       0.00000000      10.92406000       13      -0.00007100      -0.04454700      -0.11366900 
Al      2.01778000       1.97860000      11.31979000       13      -0.00055200       0.10522500       0.17954300 
Al      0.00000000       3.95719000      11.71548000       13      -0.00139300      -0.00695400       0.44589100 
Al      2.01778000       5.93579000      12.11121000       13      -0.00090200      -0.15935500       0.50160900 
Al      0.00000000       7.91439000      12.50693000       13       0.00107700      -0.36079700       0.13942800 
Al      2.01778000       9.89298000      12.90265000       13       0.00125400       0.07803000      -0.06457200 
Al      0.00000000       1.58288000      13.29838000       13       0.00030900       0.46903900       0.24512000 
Al      2.01778000       7.51867000      14.72516000       13       0.00049900      -0.09834900       0.00000900 
Al      0.00000000       9.49727000      14.72516000       13      -0.00122600       0.15708200       0.00001500 
Al      0.00000000       5.54008000      14.72516000       13       0.00009900      -0.01007400       0.00000400 
Al      2.01778000       3.56148000      14.72516000       13       0.00043800      -0.28217800       0.00000300 
Al      0.00000000       1.58288000      16.15194000       13       0.00030900       0.46903100      -0.24510700 
Al      2.01778000       9.89298000      16.54766000       13       0.00125400       0.07802900       0.06458200 
Al      0.00000000       7.91439000      16.94338000       13       0.00107700      -0.36079000      -0.13942600 
Al      2.01778000       5.93579000      17.33911000       13      -0.00090300      -0.15934700      -0.50161100 
Al      0.00000000       3.95719000      17.73483000       13      -0.00139300      -0.00695700      -0.44589900 
Al      2.01778000       1.97860000      18.13053000       13      -0.00055200       0.10521900      -0.17955800 
Al      0.00000000       0.00000000      18.52625000       13      -0.00007100      -0.04455200       0.11364800 
Al      2.01778000       8.31011000      18.92197000       13      -0.00069300       0.03878200       0.00404000 
Al      0.00000000       6.33152000      19.31770000       13       0.00023100      -0.00127200       0.03254500 
Al      2.01778000       4.35291000      19.71342000       13      -0.00007100      -0.01612500      -0.03683800 
Al      0.00000000       2.37431000      20.10915000       13       0.00100800       0.02564300       0.01193300 
Al      2.01778000       0.39572000      20.50487000       13      -0.00218800       0.00904100      -0.02764400 
Al      0.00000000       8.70583000      20.90056000       13       0.00069900       0.02311000      -0.06637100 
Al      2.01778000       6.72723000      21.29629000       13       0.00047800      -0.00772100      -0.00272600 
Al      0.00000000       4.74863000      21.69201000       13      -0.00086200      -0.01096900      -0.02047600 
Al      2.01778000       2.77004000      22.08774000       13      -0.00000000       0.00570700       0.00003400 
Al      0.00000000       0.79144000      22.48346000       13       0.00086200       0.00341200       0.02028800 
Al      2.01778000       9.10154000      22.87918000       13      -0.00047600       0.00561600       0.00610300 
Al      0.00000000       7.12295000      23.27491000       13      -0.00069800      -0.02924500       0.07467000 
Al      2.01778000       5.14435000      23.67060000       13       0.00218700      -0.00293000       0.02107100 
Al      0.00000000       3.16575000      24.06633000       13      -0.00100800      -0.02239400      -0.01736400 
Al      2.01778000       1.18716000      24.46205000       13       0.00007100       0.01428500       0.04457800 
Al      0.00000000       9.49727000      24.85777000       13      -0.00023100      -0.00007000      -0.01569500 
Al      2.01778000       7.51867000      25.25350000       13       0.00069300      -0.04726000       0.00308100 
Al      0.00000000       5.54008000      25.64922000       13       0.00007000       0.03946000      -0.12509100 
Al      2.01778000       3.56148000      26.04492000       13       0.00055200      -0.09538400       0.18192600 
Al      0.00000000       1.58288000      26.44064000       13       0.00139200       0.01752400       0.44869800 
Al      2.01778000       9.89298000      26.83636000       13       0.00090200       0.15004700       0.49420800 
Al      0.00000000       7.91439000      27.23209000       13      -0.00107700       0.35832200       0.14039600 
Al      2.01778000       5.93579000      27.62781000       13      -0.00125300      -0.07588000      -0.06973600 
Al      0.00000000       3.95719000      28.02354000       13      -0.00030800      -0.45924200       0.23845500 
70
Lattice="4.035563 0.0 0.0 0.0 10.288706 0.0 0.0 0.0 29.450315" Properties=species:S:1:pos:R:3:Z:I:1:force:R:3 energy=-257.9864552 pbc="T T T"
Al      0.00046000       6.33375000      29.44790000       13       0.00408900      -0.17102900       0.02742500 
Al      2.02141000       8.30822000      29.44968000       13      -0.01107800       0.11420900       0.00025500 
Al      4.03252000       0.00404000       0.00127000       13       0.01492900       0.01162100      -0.00477600 
Al      2.01759000       1.98086000       0.00079000       13      -0.00303700       0.27610100       0.00017900 
Al      0.00143000       3.95548000       1.42518000       13      -0.00251800      -0.44556300      -0.23479600 
Al      2.02075000       5.93865000       1.82039000       13      -0.01258300      -0.09268100       0.08039500 
Al      0.00147000       7.91583000       2.21785000       13      -0.00051000       0.35125400      -0.14165600 
Al      2.01444000       9.89082000       2.61470000       13       0.01672800       0.16198300      -0.50211700 
Al      4.03308000       1.58213000       3.00848000       13       0.00591900       0.00840500      -0.45248200 
Al      2.01581000       3.55451000       3.40513000       13       0.00781400      -0.05994700      -0.18275400 
Al      4.03516000       5.53861000       3.80200000       13       0.00291700       0.03467900       0.10664500 
Al      2.02118000       7.52059000       4.19580000       13      -0.00593600      -0.05454500      -0.01065700 
Al      0.00201000       9.49494000       4.58984000       13      -0.00717300       0.00991200       0.03527300 
Al      2.01997000       1.18611000       4.98744000       13      -0.01051600       0.00084800      -0.03603900 
Al      0.00288000       3.16406000       5.38260000       13      -0.01176000      -0.01793700       0.02959100 
Al      2.01574000       5.14952000       5.78218000       13       0.00817700      -0.03335800      -0.02906600 
Al      0.00056000       7.12111000       6.16830000       13      -0.00134200      -0.01626800      -0.04321900 
Al      2.01771000       9.09714000       6.57368000       13      -0.00218200       0.03289100      -0.02281900 
Al      4.03170000       0.78934000       6.96696000       13       0.02070000      -0.00296400      -0.03153400 
Al      2.02152000       2.76566000       7.36481000       13      -0.02302700       0.02693300      -0.02539800 
Al      4.03212000       4.74722000       7.75839000       13       0.01081500       0.00286600       0.00846300 
Al      2.01616000       6.72968000       8.15324000       13       0.00857000      -0.02007900       0.00229400 
Al      0.00030000       8.70287000       8.54881000       13      -0.00428700       0.04204400       0.06970500 
Al      2.01577000       0.39870000       8.94227000       13      -0.00067100      -0.00962700       0.04649200 
Al      4.03042000       2.37778000       9.33851000       13       0.02534700       0.00952600       0.01228100 
Al      2.01920000       4.35520000       9.73246000       13      -0.01355600      -0.01505000       0.05731200 
Al      0.00164000       6.33255000      10.13318000       13      -0.00113700      -0.00154100      -0.03149900 
Al      2.01897000       8.31120000      10.52719000       13       0.00084300       0.03963400      -0.00021800 
Al      0.00109000       0.00054000      10.92475000       13      -0.01253100      -0.03213800      -0.13141200 
Al      2.01680000       1.97958000      11.32034000       13      -0.00181900       0.09706100       0.16996000 
Al      0.00072000       3.95650000      11.71620000       13      -0.00149300       0.00261100       0.43581300 
Al      2.01943000       5.93715000      12.10989000       13      -0.00478500      -0.15770900       0.49600700 
Al      0.00074000       7.91947000      12.50737000       13      -0.00054300      -0.37372100       0.12855000 
Al      2.01622000       9.89347000      12.89987000       13       0.00958400       0.08402100      -0.05155000 
Al      4.03439000       1.58715000      13.30237000       13      -0.00245300       0.46149900       0.23069100 
Al      2.01900000       7.51467000      14.72588000       13       0.00412700      -0.09235900      -0.00484300 
Al      0.00095000       9.49645000      14.72666000       13      -0.00832300       0.15348700      -0.02134000 
Al      0.00166000       5.54188000      14.72637000       13       0.00034200      -0.02669700       0.00361700 
Al      2.02281000       3.56078000      14.72460000       13      -0.00946700      -0.27727300       0.00203300 
Al      4.03392000       1.57920000      16.14986000       13       0.00846700       0.48955500      -0.22733900 
Al      2.01712000       9.89519000      16.54473000       13       0.00335400       0.06948100       0.08599400 
Al      0.00122000       7.91177000      16.93959000       13      -0.00883700      -0.34640800      -0.11252800 
Al      2.01355000       5.93477000      17.34261000       13       0.01238900      -0.15365400      -0.49897900 
Al      0.00118000       3.95635000      17.73314000       13      -0.00301500      -0.00037000      -0.43755300 
Al      2.02287000       1.97898000      18.13032000       13      -0.02548000       0.10279500      -0.18243400 
Al      4.03550000       0.00141000      18.53095000       13       0.00747900      -0.05577900       0.07809500 
Al      2.01929000       8.31097000      18.92396000       13      -0.00642100       0.04132500      -0.02757100 
Al      4.03302000       6.33722000      19.31756000       13       0.00514400      -0.01863300       0.03232700 
Al      2.01669000       4.35460000      19.71578000       13      -0.00274700      -0.02697400      -0.05138500 
Al      4.03436000       2.37033000      20.10578000       13       0.00780000       0.05020400       0.02946700 
Al      2.01791000       0.39354000      20.50331000       13      -0.00384100       0.02820100      -0.01509100 
Al      0.00048000       8.70914000      20.89821000       13       0.00466800       0.00773800      -0.04791600 
Al      2.01789000       6.72542000      21.29252000       13      -0.00878900       0.01082900       0.01280500 
Al      4.03328000       4.74953000      21.69107000       13       0.00520100      -0.01985500      -0.02555000 
Al      2.01675000       2.77176000      22.08827000       13      -0.00038100      -0.00455800      -0.00577500 
Al      0.00099000       0.78988000      22.48210000       13       0.00548900       0.01816200       0.02457600 
Al      2.02123000       9.10585000      22.87759000       13      -0.01517500      -0.01569900       0.00597200 
Al      0.00015000       7.12055000      23.27432000       13       0.00362000      -0.00637300       0.06827200 
Al      2.01890000       5.14461000      23.66759000       13      -0.00555000      -0.00777000       0.03734100 
Al      0.00052000       3.16536000      24.06716000       13       0.00331700      -0.02544700      -0.02277000 
Al      2.02007000       1.18427000      24.46351000       13      -0.01329300       0.02374700       0.03634200 
Al      4.03219000       9.49759000      24.85839000       13       0.01896600      -0.01139300      -0.01611800 
Al      2.01643000       7.51755000      25.25051000       13       0.00134700      -0.04168400       0.01460700 
Al      0.00118000       5.53726000      25.65024000       13      -0.00657400       0.04983000      -0.12875100 
Al      2.01905000       3.55939000      26.04590000       13      -0.00628100      -0.08802200       0.18310000 
Al      4.03448000       1.58536000      26.44134000       13       0.00563100       0.00859800       0.45390300 
Al      2.01503000       9.89259000      26.83635000       13       0.00463400       0.15243400       0.49587900 
Al      4.03319000       7.91505000      27.23419000       13       0.00245900       0.36624400       0.11046500 
Al      2.01366000       5.93866000      27.62589000       13       0.00922100      -0.08453700      -0.06893800 
Al      4.03455000       3.95938000      28.02456000       13      -0.00358100      -0.45990500       0.23738200 
70
Lattice="4.035563 0.0 0.0 0.0 10.288706 0.0 0.0 0.0 29.450315" Properties=species:S:1:pos:R:3:Z:I:1:force:R:3 energy=-257.98307775 pbc="T T T"
Al      0.00092000       6.33598000      29.44548000       13       0.00632800      -0.18474600       0.04380100 
Al      2.02504000       8.30635000      29.44905000       13      -0.02819100       0.12862500       0.00269200 
Al      4.02949000       0.00809000       0.00255000       13       0.02694800      -0.00101400      -0.00289700 
Al      2.01740000       1.98315000       0.00158000       13      -0.00819700       0.27900600       0.00119600 
Al      0.00285000       3.95372000       1.42356000       13      -0.00444600      -0.43246700      -0.23235200 
Al      2.02372000       5.94150000       1.81829000       13      -0.01947700      -0.10706900       0.09378900 
Al      0.00293000       7.91730000       2.21746000       13      -0.00416700       0.34048700      -0.14343100 
Al      2.01110000       9.88867000       2.61541000       13       0.03006400       0.17142000      -0.50907900 
Al      4.03059000       1.58139000       3.00724000       13       0.00693800      -0.00307600      -0.45816500 
Al      2.01383000       3.54754000       3.40484000       13       0.01647200      -0.02770900      -0.18485800 
Al      4.03476000       5.53715000       3.80291000       13       0.00673300       0.03048300       0.08076800 
Al      2.02457000       7.52251000       4.19479000       13      -0.01618000      -0.06646700      -0.01678700 
Al      0.00402000       9.49262000       4.58714000       13      -0.01035300       0.02251700       0.05339300 
Al      2.02217000       1.18505000       4.98661000       13      -0.02286900      -0.00975700      -0.02536500 
Al      0.00577000       3.16237000       5.38121000       13      -0.01963600      -0.01158800       0.04461600 
Al      2.01369000       5.15469000       5.78465000       13       0.02255300      -0.07587700      -0.04952300 
Al      0.00113000       7.11927000       6.16120000       13      -0.00192100      -0.00902900      -0.01959400 
Al      2.01764000       9.09274000       6.57622000       13      -0.00382800       0.04501700      -0.04163200 
Al      4.02784000       0.78723000       6.96705000       13       0.04321900      -0.00627000      -0.03950800 
Al      2.02526000       2.76129000       7.36703000       13      -0.05437700       0.05199800      -0.05407800 
Al      4.02869000       4.74581000       7.75847000       13       0.02738600       0.01125000      -0.00145100 
Al      2.01455000       6.73213000       8.15245000       13       0.01188800      -0.03283600       0.00377700 
Al      0.00060000       8.69991000       8.54787000       13      -0.00815600       0.05430800       0.07118300 
Al      2.01375000       0.40167000       8.93910000       13      -0.00286000      -0.02587500       0.06887600 
Al      4.02528000       2.38125000       9.33585000       13       0.05538500      -0.01842700       0.03918700 
Al      2.02062000       4.35749000       9.72804000       13      -0.02652200      -0.01548300       0.07553700 
Al      0.00329000       6.33359000      10.13375000       13      -0.00450400      -0.00884800      -0.03421600 
Al      2.02016000       8.31231000      10.52603000       13       0.00238600       0.04170500       0.00229300 
Al      0.00218000       0.00107000      10.92542000       13      -0.02049300      -0.01887300      -0.14808400 
Al      2.01583000       1.98056000      11.32091000       13      -0.00385900       0.10093500       0.16239300 
Al      0.00144000       3.95581000      11.71695000       13       0.00135100       0.01343200       0.42669200 
Al      2.02107000       5.93849000      12.10861000       13      -0.00730800      -0.15868000       0.49305000 
Al      0.00147000       7.92451000      12.50783000       13      -0.00422200      -0.39616300       0.11922800 
Al      2.01466000       9.89396000      12.89708000       13       0.01871700       0.08973200      -0.03605500 
Al      4.03322000       1.59146000      13.30639000       13       0.00183300       0.44891000       0.21835600 
Al      2.02022000       7.51067000      14.72660000       13       0.00436100      -0.07453600      -0.01021800 
Al      0.00189000       9.49565000      14.72817000       13      -0.01676700       0.15844600      -0.04356700 
Al      0.00332000       5.54369000      14.72759000       13       0.00820800      -0.03646700       0.00236400 
Al      2.02783000       3.56006000      14.72405000       13      -0.00756200      -0.27360200       0.00149100 
Al      4.03228000       1.57557000      16.14777000       13       0.02139800       0.50061400      -0.20857200 
Al      2.01646000       9.89740000      16.54181000       13       0.00521500       0.05579500       0.10854900 
Al      0.00243000       7.90912000      16.93578000       13      -0.01402600      -0.34005800      -0.08733100 
Al      2.00931000       5.93374000      17.34607000       13       0.02431900      -0.15570800      -0.50080000 
Al      0.00236000       3.95551000      17.73141000       13      -0.00505600       0.00574100      -0.43228000 
Al      2.02795000       1.97937000      18.13010000       13      -0.04625400       0.10241800      -0.19363000 
Al      4.03544000       0.00282000      18.53567000       13       0.01510800      -0.07221500       0.03312500 
Al      2.02079000       8.31184000      18.92594000       13      -0.00983700       0.04533100      -0.05439600 
Al      4.03048000       6.34292000      19.31743000       13       0.01020800      -0.03569500       0.03006700 
Al      2.01560000       4.35629000      19.71812000       13      -0.00700100      -0.03612800      -0.06493900 
Al      4.03315000       2.36634000      20.10241000       13       0.02039300       0.07597400       0.04659100 
Al      2.01804000       0.39136000      20.50174000       13      -0.00550200       0.05338500      -0.00499900 
Al      0.00095000       8.71246000      20.89585000       13       0.00750700      -0.01200900      -0.02991500 
Al      2.01800000       6.72362000      21.28875000       13      -0.01384500       0.03654100       0.02871600 
Al      4.03099000       4.75043000      21.69013000       13       0.01178200      -0.02798900      -0.02787100 
Al      2.01571000       2.77348000      22.08881000       13       0.00024100      -0.01612800      -0.01154200 
Al      0.00199000       0.78833000      22.48075000       13       0.00974200       0.03431300       0.02962500 
Al      2.02468000       9.11015000      22.87599000       13      -0.03395000      -0.05334100       0.00456000 
Al      0.00031000       7.11814000      23.27374000       13       0.00914500       0.00920800       0.05833900 
Al      2.02002000       5.14486000      23.66457000       13      -0.00928800      -0.01227100       0.06394400 
Al      0.00104000       3.16497000      24.06799000       13       0.00579300      -0.02815900      -0.02938800 
Al      2.02236000       1.18137000      24.46498000       13      -0.02738500       0.04088100       0.02780300 
Al      4.02881000       9.49790000      24.85901000       13       0.03477000      -0.01918400      -0.01629600 
Al      2.01509000       7.51643000      25.24753000       13      -0.00223100      -0.03909700       0.02002700 
Al      0.00236000       5.53444000      25.65124000       13      -0.01564600       0.05450800      -0.13701400 
Al      2.02032000       3.55730000      26.04691000       13      -0.00837300      -0.07766200       0.17780100 
Al      4.03340000       1.58785000      26.44208000       13       0.01247600      -0.00052100       0.45685300 
Al      2.01228000       9.89220000      26.83637000       13       0.00461900       0.15073500       0.49528400 
Al      4.03083000       7.91574000      27.23630000       13       0.00241600       0.37411800       0.08817700 
Al      2.00954000       5.94152000      27.62396000       13       0.02557900      -0.09360800      -0.07392100 
Al      4.03354000       3.96153000      28.02560000       13      -0.00537700      -0.45746800       0.23484100 
70
Lattice="4.035563 0.0 0.0 0.0 10.288706 0.0 0.0 0.0 29.450315" Properties=species:S:1:pos:R:3:Z:I:1:force:R:3 energy=-257.97484828 pbc="T T T"
Al      0.00138000       6.33818000      29.44307000       13       0.00795000      -0.19985000       0.06154600 
Al      2.02866000       8.30449000      29.44842000       13      -0.04254500       0.14338400       0.00635500 
Al      4.02645000       0.01214000       0.00382000       13       0.03320500      -0.01048600      -0.00067300 
Al      2.01720000       1.98546000       0.00237000       13      -0.01218500       0.28556100       0.00328700 
Al      0.00428000       3.95193000       1.42192000       13      -0.00938700      -0.41955800      -0.23013400 
Al      2.02669000       5.94434000       1.81619000       13      -0.02864100      -0.11764200       0.10715000 
Al      0.00440000       7.91881000       2.21706000       13      -0.00624000       0.32455200      -0.14729100 
Al      2.00776000       9.88654000       2.61607000       13       0.04229400       0.18420900      -0.51481000 
Al      4.02811000       1.58065000       3.00596000       13       0.00971200      -0.01071300      -0.45934500 
Al      2.01186000       3.54057000       3.40454000       13       0.02122400       0.00092900      -0.19253200 
Al      4.03436000       5.53569000       3.80384000       13       0.01091200       0.02115500       0.06137400 
Al      2.02797000       7.52442000       4.19377000       13      -0.02872200      -0.07941800      -0.02326900 
Al      0.00603000       9.49030000       4.58444000       13      -0.01785500       0.03617800       0.06927500 
Al      2.02436000       1.18399000       4.98578000       13      -0.03041300      -0.02172500      -0.01625400 
Al      0.00865000       3.16068000       5.37983000       13      -0.02670600      -0.00332700       0.06002200 
Al      2.01165000       5.15984000       5.78712000       13       0.02452700      -0.10165100      -0.06608300 
Al      0.00169000       7.11743000       6.15409000       13      -0.00777500      -0.00318300       0.00342900 
Al      2.01757000       9.08834000       6.57876000       13      -0.00547100       0.06162700      -0.06034400 
Al      4.02399000       0.78513000       6.96715000       13       0.06517900      -0.01157000      -0.04592400 
Al      2.02899000       2.75692000       7.36925000       13      -0.08195800       0.07175300      -0.08069800 
Al      4.02525000       4.74440000       7.75856000       13       0.05644700       0.02631200      -0.01085900 
Al      2.01293000       6.73458000       8.15167000       13       0.01201900      -0.04669000       0.00628000 
Al      0.00090000       8.69696000       8.54694000       13      -0.00978900       0.06704900       0.08330800 
Al      2.01174000       0.40463000       8.93594000       13      -0.00365000      -0.04032400       0.08758100 
Al      4.02015000       2.38471000       9.33320000       13       0.08261600      -0.02863300       0.05984400 
Al      2.02203000       4.35977000       9.72362000       13      -0.04055500      -0.02070600       0.10212700 
Al      0.00493000       6.33463000      10.13431000       13      -0.00674300      -0.01275200      -0.03500500 
Al      2.02135000       8.31341000      10.52488000       13       0.00508400       0.04196600       0.00219000 
Al      0.00327000       0.00160000      10.92607000       13      -0.03135600      -0.00540300      -0.16193300 
Al      2.01485000       1.98156000      11.32149000       13      -0.00566200       0.10255300       0.15462100 
Al      0.00216000       3.95513000      11.71775000       13       0.00312000       0.02072200       0.41874200 
Al      2.02272000       5.93982000      12.10738000       13      -0.00664700      -0.16238300       0.49571400 
Al      0.00221000       7.92951000      12.50829000       13      -0.00433800      -0.41837900       0.11355400 
Al      2.01311000       9.89446000      12.89429000       13       0.02994700       0.09207200      -0.01827300 
Al      4.03206000       1.59581000      13.31042000       13       0.00142100       0.43537800       0.20714100 
Al      2.02143000       7.50666000      14.72732000       13       0.00254500      -0.05340800      -0.01556100 
Al      0.00283000       9.49486000      14.72967000       13      -0.02263500       0.15607800      -0.05884700 
Al      0.00498000       5.54548000      14.72881000       13       0.00985800      -0.04716600       0.00213100 
Al      2.03285000       3.55932000      14.72349000       13      -0.01454500      -0.26659300       0.00108300 
Al      4.03064000       1.57199000      16.14566000       13       0.03034100       0.51777500      -0.18940900 
Al      2.01580000       9.89962000      16.53890000       13       0.01301000       0.03913700       0.13191300 
Al      0.00365000       7.90644000      16.93196000       13      -0.02713100      -0.32422600      -0.07161900 
Al      2.00508000       5.93269000      17.34949000       13       0.03864300      -0.16044000      -0.50641200 
Al      0.00354000       3.95468000      17.72964000       13      -0.00786100       0.00923100      -0.42772700 
Al      2.03303000       1.97976000      18.12986000       13      -0.06858700       0.10429700      -0.20073200 
Al      4.03537000       0.00422000      18.54038000       13       0.02499300      -0.08878300      -0.01048300 
Al      2.02230000       8.31271000      18.92792000       13      -0.01707800       0.04689900      -0.08170500 
Al      4.02794000       6.34862000      19.31730000       13       0.01729200      -0.05831600       0.02149100 