31
Lattice="8.071125 0.0 0.0 0.0 8.071125 0.0 0.0 0.0 8.071125" Properties=species:S:1:pos:R:3:Z:I:1:force:R:3 energy=-115.3657116 pbc="T T T"
Al      0.00000000       0.00000000       0.00000000       13       0.00000000       0.00000000      -0.00000000 
Al      2.01778000       2.01778000       0.00000000       13      -0.02905600      -0.02868900      -0.00062800 
Al      2.01778000       0.00000000       2.01778000       13      -0.02723600      -0.00051700      -0.02793600 
Al      0.00000000       2.01778000       2.01778000       13      -0.00021300      -0.02709100      -0.02815300 
Al      0.00000000       0.00000000       4.03556000       13      -0.00000000      -0.00000000      -0.00000000 
Al      2.01778000       2.01778000       4.03556000       13       0.16754800       0.16728700       0.00053200 
Al      2.01778000       0.00000000       6.05334000       13      -0.02821700       0.00030400       0.02887000 
Al      0.00000000       2.01778000       6.05334000       13       0.00005600      -0.02822600       0.02930500 
Al      0.00000000       4.03556000       0.00000000       13       0.00000000       0.00000000       0.00000000 
Al      2.01778000       6.05334000       0.00000000       13      -0.02831700       0.02792000       0.00030300 
Al      2.01778000       4.03556000       2.01778000       13       0.16710600       0.00034100       0.16771900 
Al      0.00000000       6.05334000       2.01778000       13      -0.00005600       0.02822700      -0.02930500 
Al      0.00000000       4.03556000       4.03556000       13      -0.00000000      -0.00000000      -0.00000000 
Al      2.01778000       6.05334000       4.03556000       13       0.16811300      -0.16783200      -0.00012100 
Al      2.01778000       4.03556000       6.05334000       13       0.16654200      -0.00036200      -0.16712400 
Al      0.00000000       6.05334000       6.05334000       13       0.00021300       0.02709200       0.02815300 
Al      4.03556000       0.00000000       0.00000000       13      -0.00000000       0.00000000      -0.00000000 
Al      6.05334000       2.01778000       0.00000000       13       0.02831600      -0.02792000      -0.00030300 
Al      6.05334000       0.00000000       2.01778000       13       0.02821800      -0.00030400      -0.02887100 
Al      4.03556000       2.01778000       2.01778000       13       0.00023100       0.16719400       0.16805700 
Al      4.03556000       0.00000000       4.03556000       13      -0.00000000       0.00000000       0.00000000 
Al      6.05334000       2.01778000       4.03556000       13      -0.16811300       0.16783200       0.00012100 
Al      6.05334000       0.00000000       6.05334000       13       0.02723600       0.00051700       0.02793600 
Al      4.03556000       2.01778000       6.05334000       13      -0.00013500       0.16649900      -0.16734600 
Al      4.03556000       4.03556000       0.00000000       13       0.00000000       0.00000000       0.00000000 
Al      6.05334000       6.05334000       0.00000000       13       0.02905500       0.02868900       0.00062800 
Al      6.05334000       4.03556000       2.01778000       13      -0.16654200       0.00036200       0.16712400 
Al      4.03556000       6.05334000       2.01778000       13       0.00013500      -0.16649900       0.16734500 
Al      6.05334000       6.05334000       4.03556000       13      -0.16754800      -0.16728700      -0.00053200 
Al      6.05334000       4.03556000       6.05334000       13      -0.16710600      -0.00034100      -0.16771900 
Al      4.03556000       6.05334000       6.05334000       13      -0.00023100      -0.16719400      -0.16805700 
31
Lattice="8.071125 0.0 0.0 0.0 8.071125 0.0 0.0 0.0 8.071125" Properties=species:S:1:pos:R:3:Z:I:1:force:R:3 energy=-115.36747788 pbc="T T T"
Al      0.00042000       0.00225000       8.06946000       13       0.00447100      -0.00980000       0.01775600 
Al      2.02124000       2.01606000       0.00005000       13      -0.04210800      -0.01789700       0.00377300 
Al      2.01485000       0.00397000       2.01965000       13      -0.01226700      -0.02079100      -0.04719700 
Al      8.07093000       2.02002000       2.01919000       13      -0.00535700      -0.04324200      -0.03383800 
Al      0.00135000       8.06962000       4.03470000       13      -0.00667500       0.01383600       0.00293600 
Al      2.02063000       2.02063000       4.03418000       13       0.15394700       0.15585500       0.01512500 
Al      2.01917000       0.00144000       6.05365000       13      -0.03840500      -0.00747900       0.02548900 
Al      8.06791000       2.01579000       6.05476000       13       0.01639500      -0.01818300       0.01708900 
Al      8.06873000       4.03494000       8.07067000       13       0.00877800      -0.00652100      -0.00211300 
Al      2.01587000       6.04678000       0.00041000       13      -0.02424700       0.05717500       0.00414300 
Al      2.01740000       4.03425000       2.01930000       13       0.17643800      -0.00021000       0.15777800 
Al      0.00324000       6.05529000       2.01746000       13      -0.01496900       0.02285700      -0.03154300 
Al      0.00191000       4.03343000       4.03362000       13      -0.00677400       0.01719700       0.02413400 
Al      2.01988000       6.05241000       4.03543000       13       0.15723800      -0.17010100       0.00655200 
Al      2.02054000       4.03404000       6.05265000       13       0.13773100       0.00535100      -0.17371400 
Al      8.06915000       6.05839000       6.05637000       13       0.02067600       0.00378700       0.00836500 
Al      4.03609000       8.06946000       8.06498000       13      -0.01285200       0.00005400       0.01941200 
Al      6.05326000       2.01365000       0.00309000       13       0.01620800      -0.01036300      -0.01122300 
Al      6.04963000       8.06920000       2.01853000       13       0.04948100       0.00269300      -0.02944100 
Al      4.03913000       2.01370000       2.02058000       13      -0.01112600       0.18646400       0.14956200 
Al      4.03225000       8.06987000       4.03629000       13       0.01560100       0.00087900       0.00317900 
Al      6.05176000       2.02024000       4.03546000       13      -0.16227900       0.15069400       0.00644800 
Al      6.05362000       8.06838000       6.05309000       13       0.01994200       0.02598200       0.01542400 
Al      4.03362000       2.02074000       6.05094000       13       0.01698100       0.15664900      -0.16056900 
Al      4.03062000       4.03898000       8.06923000       13       0.02823700      -0.02328700       0.02017800 
Al      6.05469000       6.05563000       8.06753000       13       0.02416000       0.01520100       0.02846500 
Al      6.05489000       4.03665000       2.01899000       13      -0.17959000       0.00535200       0.15228400 
Al      4.03669000       6.05447000       2.01734000       13      -0.00534000      -0.16431100       0.15907700 
Al      6.05436000       6.05394000       4.03688000       13      -0.16293200      -0.16985500      -0.00389900 
Al      6.05238000       4.03658000       6.05449000       13      -0.16292300      -0.00586700      -0.16619400 
Al      4.03624000       6.05276000       6.05463000       13      -0.00535000      -0.16583100      -0.17592000 
31
Lattice="8.071125 0.0 0.0 0.0 8.071125 0.0 0.0 0.0 8.071125" Properties=species:S:1:pos:R:3:Z:I:1:force:R:3 energy=-115.36708525 pbc="T T T"
Al      0.00085000       0.00450000       8.06780000       13       0.00655200      -0.01068800       0.03615900 
Al      2.02469000       2.01434000       0.00009000       13      -0.04773400      -0.01348400       0.00864700 
Al      2.01192000       0.00793000       2.02151000       13      -0.00190300      -0.02949500      -0.06362800 
Al      8.07073000       2.02225000       2.02059000       13      -0.00762300      -0.05076900      -0.04191600 
Al      0.00270000       8.06811000       4.03384000       13      -0.01612300       0.02775300       0.00866700 
Al      2.02349000       2.02350000       4.03281000       13       0.14816900       0.15222100       0.02447100 
Al      2.02055000       0.00289000       6.05395000       13      -0.05065900      -0.01750800       0.02301800 
Al      8.06469000       2.01379000       6.05618000       13       0.02255800      -0.00852300       0.01071700 
Al      8.06633000       4.03432000       8.07021000       13       0.01115800      -0.01095400      -0.00289500 
Al      2.01396000       6.04021000       0.00081000       13      -0.02373500       0.08752400       0.00464100 
Al      2.01703000       4.03294000       2.02084000       13       0.18613100       0.00084100       0.14729800 
Al      0.00648000       6.05723000       2.01713000       13      -0.02166000       0.01971000      -0.03073100 
Al      0.00382000       4.03130000       4.03168000       13      -0.01119700       0.03197200       0.04554700 
Al      2.02200000       6.05146000       4.03529000       13       0.15360600      -0.16665400       0.01506700 
Al      2.02332000       4.03252000       6.05193000       13       0.11550900       0.01137600      -0.17689400 
Al      8.06718000       6.06344000       6.05939000       13       0.04060700      -0.01582500      -0.00874400 
Al      4.03661000       8.06779000       8.05883000       13      -0.02222000       0.00352600       0.03983300 
Al      6.05319000       2.00952000       0.00618000       13       0.00436900       0.00078300      -0.01566500 
Al      6.04593000       8.06728000       2.01927000       13       0.06078300      -0.00005700      -0.03057300 
Al      4.04270000       2.00963000       2.02339000       13      -0.01737500       0.19910700       0.12700900 
Al      4.02894000       8.06861000       4.03702000       13       0.02182800       0.00388000       0.00621400 
Al      6.05017000       2.02271000       4.03536000       13      -0.15393700       0.14130500       0.01565500 
Al      6.05390000       8.06564000       6.05283000       13       0.00992800       0.04521200       0.00475000 
Al      4.03168000       2.02371000       6.04852000       13       0.03549000       0.15588400      -0.15775400 
Al      4.02568000       4.04239000       8.06733000       13       0.05438300      -0.04223100       0.03880900 
Al      6.05604000       6.05792000       8.06393000       13       0.02367800       0.00665500       0.04651500 
Al      6.05641000       4.03774000       2.02022000       13      -0.19231300       0.00917400       0.13659200 
Al      4.03781000       6.05559000       2.01692000       13      -0.01686100      -0.16925300       0.15215900 
Al      6.05536000       6.05452000       4.03819000       13      -0.16315400      -0.17849600      -0.01357500 
Al      6.05140000       4.03760000       6.05563000       13      -0.15323000      -0.01668400      -0.17016000 
Al      4.03691000       6.05217000       6.05589000       13      -0.01449100      -0.16215300      -0.19384700 
31
Lattice="8.071125 0.0 0.0 0.0 8.071125 0.0 0.0 0.0 8.071125" Properties=species:S:1:pos:R:3:Z:I:1:force:R:3 energy=-115.36442574 pbc="T T T"
Al      0.00128000       0.00675000       8.06614000       13       0.01215400      -0.01140900       0.05001700 
Al      2.02814000       2.01261000       0.00014000       13      -0.05100200      -0.00558000       0.01376500 
Al      2.00899000       0.01190000       2.02337000       13       0.01933600      -0.05442500      -0.08773100 
Al      8.07052000       2.02447000       2.02198000       13      -0.01166400      -0.05738000      -0.04845800 
Al      0.00405000       8.06660000       4.03298000       13      -0.01944800       0.03731500       0.01119100 
Al      2.02636000       2.02638000       4.03143000       13       0.13617300       0.14220400       0.03690100 
Al      2.02193000       0.00433000       6.05426000       13      -0.05838100      -0.02308000       0.01613300 
Al      8.06147000       2.01179000       6.05759000       13       0.03039200      -0.00181600       0.00050400 
Al      8.06394000       4.03370000       8.06975000       13       0.01219100      -0.01476500      -0.00309400 
Al      2.01204000       6.03366000       0.00122000       13      -0.02089900       0.12736100       0.00627600 
Al      2.01667000       4.03162000       2.02239000       13       0.19618000       0.00097200       0.14164300 
Al      0.00971000       6.05918000       2.01680000       13      -0.02908000       0.01908900      -0.03538100 
Al      0.00573000       4.02917000       4.02975000       13      -0.01306300       0.04387300       0.06409100 
Al      2.02413000       6.05050000       4.03516000       13       0.15034900      -0.16888800       0.01975300 
Al      2.02610000       4.03099000       6.05120000       13       0.09433100       0.01681000      -0.18332400 
Al      8.06521000       6.06849000       6.06241000       13       0.06363100      -0.05056700      -0.03302500 
Al      4.03713000       8.06613000       8.05269000       13      -0.03488300       0.00671800       0.07057700 
Al      6.05311000       2.00539000       0.00927000       13      -0.00590100       0.02895600      -0.03376700 
Al      6.04223000       8.06536000       2.02001000       13       0.07892900       0.00098000      -0.03005600 
Al      4.04626000       2.00558000       2.02622000       13      -0.03530700       0.22495500       0.10035700 
Al      4.02564000       8.06736000       4.03775000       13       0.02807100       0.00211900       0.01125200 
Al      6.04856000       2.02520000       4.03526000       13      -0.14688900       0.13300300       0.02327700 
Al      6.05418000       8.06290000       6.05258000       13       0.00360300       0.06474800      -0.01025300 
Al      4.02974000       2.02669000       6.04608000       13       0.05388500       0.15022400      -0.15256300 
Al      4.02075000       4.04579000       8.06544000       13       0.09064300      -0.06733100       0.06086700 
Al      6.05739000       6.06021000       8.06034000       13       0.01586300      -0.00712100       0.07643600 
Al      6.05793000       4.03883000       2.02146000       13      -0.19905400       0.01248200       0.12388500 
Al      4.03894000       6.05669000       2.01650000       13      -0.02331000      -0.16962000       0.14873200 
Al      6.05635000       6.05509000       4.03950000       13      -0.16341100      -0.18196600      -0.01548500 
Al      6.05040000       4.03862000       6.05675000       13      -0.14620400      -0.02516200      -0.17149100 
Al      4.03759000       6.05156000       6.05714000       13      -0.02037200      -0.15911000      -0.20274900 
31
Lattice="8.071125 0.0 0.0 0.0 8.071125 0.0 0.0 0.0 8.071125" Properties=species:S:1:pos:R:3:Z:I:1:force:R:3 energy=-115.35922941 pbc="T T T"
Al      0.00170000       0.00900000       8.06448000       13       0.01786500      -0.01209400       0.06395000 
Al      2.03159000       2.01089000       0.00018000       13      -0.07479700       0.00804000       0.01891700 
Al      2.00606000       0.01586000       2.02522000       13       0.03499200      -0.07180800      -0.10685100 
Al      8.07032000       2.02670000       2.02338000       13      -0.01559200      -0.06390400      -0.05216600 
Al      0.00540000       8.06510000       4.03212000       13      -0.02206800       0.04687300       0.01583100 
Al      2.02924000       2.02928000       4.03006000       13       0.12088100       0.12867700       0.05249200 
Al      2.02330000       0.00577000       6.05457000       13      -0.06549800      -0.02782900       0.01297400 
Al      8.05826000       2.00980000       6.05901000       13       0.05363900       0.01304100      -0.01425500 
Al      8.06154000       4.03308000       8.06929000       13       0.01318800      -0.01916100      -0.00668600 
Al      2.01012000       6.02711000       0.00163000       13      -0.02133000       0.15316700       0.00758200 
Al      2.01634000       4.03031000       2.02395000       13       0.20424400      -0.00139700       0.13506200 
Al      0.01295000       6.06113000       2.01647000       13      -0.05180100       0.00820000      -0.03511600 
Al      0.00764000       4.02705000       4.02782000       13      -0.01868200       0.05939700       0.08616900 
Al      2.02627000       6.04952000       4.03503000       13       0.14756900      -0.17042900       0.02823600 
Al      2.02890000       4.02947000       6.05046000       13       0.06221100       0.02639300      -0.18812700 
Al      8.06324000       6.07353000       6.06543000       13       0.08348500      -0.07356600      -0.05320200 
Al      4.03765000       8.06446000       8.04655000       13      -0.04344600       0.00406000       0.09019200 
Al      6.05303000       2.00127000       0.01235000       13      -0.01878000       0.04760900      -0.04164600 
Al      6.03853000       8.06344000       2.02075000       13       0.10745300       0.00448100      -0.03077300 
Al      4.04982000       2.00156000       2.02905000       13      -0.04465500       0.23965300       0.08332200 
Al      4.02233000       8.06610000       4.03848000       13       0.05157500       0.00736300       0.01180200 
Al      6.04694000       2.02769000       4.03516000       13      -0.14048100       0.12344300       0.02910000 
Al      6.05446000       8.06017000       6.05232000       13      -0.00484600       0.08319500      -0.02350600 
Al      4.02780000       2.02968000       6.04363000       13       0.08137500       0.13267200      -0.13901300 
Al      4.01582000       4.04919000       8.06356000       13       0.12172000      -0.09173400       0.08025800 
Al      6.05874000       6.06250000       8.05676000       13       0.01208400      -0.02184500       0.10789800 
Al      6.05942000       4.03992000       2.02270000       13      -0.20696500       0.01996000       0.11281500 
Al      4.04006000       6.05777000       2.01610000       13      -0.02770500      -0.16833300       0.14152800 
Al      6.05732000       6.05564000       4.04081000       13      -0.15973400      -0.18624000      -0.01815400 
Al      6.04939000       4.03964000       6.05785000       13      -0.14195400      -0.03089300      -0.17033500 
Al      4.03826000       6.05094000       6.05838000       13      -0.02760300      -0.15889900      -0.21179300 
31
Lattice="8.071125 0.0 0.0 0.0 8.071125 0.0 0.0 0.0 8.071125" Properties=species:S:1:pos:R:3:Z:I:1:force:R:3 energy=-115.35131938 pbc="T T T"
Al      0.00213000       0.01125000       8.06283000       13       0.02126500      -0.02610300       0.08640500 
Al      2.03503000       2.00916000       0.00023000       13      -0.08883300       0.01797600       0.02409400 
Al      2.00314000       0.01981000       2.02706000       13       0.05183700      -0.08999400      -0.11831200 
Al      8.07012000       2.02891000       2.02476000       13      -0.01780800      -0.08071000      -0.06188700 
Al      0.00674000       8.06361000       4.03126000       13      -0.02539100       0.05546500       0.02059200 
Al      2.03214000       2.03218000       4.02869000       13       0.10894300       0.11829500       0.06838200 
Al      2.02467000       0.00720000       6.05488000       13      -0.07277200      -0.03253300       0.00954000 
Al      8.05505000       2.00780000       6.06043000       13       0.06627200       0.02706900      -0.02800900 
Al      8.05915000       4.03245000       8.06883000       13       0.02046600      -0.02387700      -0.01095400 
Al      2.00820000       6.02058000       0.00204000       13      -0.01753900       0.20183300       0.01102400 
Al      2.01602000       4.02900000       2.02553000       13       0.21227700      -0.00360100       0.12825100 
Al      0.01617000       6.06308000       2.01614000       13      -0.07211500       0.00037500      -0.04002900 
Al      0.00954000       4.02493000       4.02590000       13      -0.03257000       0.08312900       0.11643400 
Al      2.02842000       6.04852000       4.03490000       13       0.14468900      -0.17259200       0.03459700 
Al      2.03170000       4.02796000       6.04970000       13       0.03063300       0.03565100      -0.19157900 
Al      8.06129000       6.07856000       6.06845000       13       0.11039600      -0.10607400      -0.07543600 
Al      4.03816000       8.06280000       8.04042000       13      -0.05583600       0.00862400       0.12312300 
Al      6.05295000       1.99715000       0.01544000       13      -0.02865700       0.06733200      -0.04773200 
Al      6.03485000       8.06152000       2.02148000       13       0.12719300       0.00566100      -0.02682800 
Al      4.05338000       1.99755000       2.03189000       13      -0.06114600       0.26189700       0.05965300 
Al      4.01903000       8.06485000       4.03921000       13       0.06825900       0.00591900       0.01525200 
Al      6.04530000       2.03020000       4.03506000       13      -0.12899300       0.10313700       0.03835500 
Al      6.05474000       8.05744000       6.05206000       13      -0.01594300       0.11769600      -0.03433700 
Al      4.02587000       2.03269000       6.04117000       13       0.09723400       0.12606300      -0.13189000 
Al      4.01090000       4.05259000       8.06168000       13       0.15704000      -0.11356700       0.10444400 
Al      6.06009000       6.06479000       8.05318000       13       0.00540100      -0.03211300       0.13587000 
Al      6.06089000       4.04102000       2.02396000       13      -0.21468700       0.02735200       0.10196800 
Al      4.04118000       6.05884000       2.01572000       13      -0.03213700      -0.16723500       0.13427100 
Al      6.05828000       6.05617000       4.04212000       13      -0.15603400      -0.19044600      -0.02082100 
Al      6.04837000       4.04065000       6.05894000       13      -0.13770400      -0.03660400      -0.16917000 
Al      4.03893000       6.05030000       6.05959000       13      -0.03217400      -0.15608700      -0.22100100 
31
Lattice="8.071125 0.0 0.0 0.0 8.071125 0.0 0.0 0.0 8.071125" Properties=species:S:1:pos:R:3:Z:I:1:force:R:3 energy=-115.34076955 pbc="T T T"
Al      0.00256000       0.01349000       8.06119000       13       0.02620300      -0.03535200       0.10784900 
Al      2.03846000       2.00744000       0.00028000       13      -0.09545900       0.02658100       0.02923200 
Al      2.00021000       0.02375000       2.02889000       13       0.06733000      -0.10940100      -0.13832300 
Al      8.06991000       2.03112000       2.02615000       13      -0.02266700      -0.09412200      -0.07416600 
Al      0.00808000       8.06211000       4.03040000       13      -0.03607100       0.07324600       0.02753200 
Al      2.03504000       2.03510000       4.02733000       13       0.09700800       0.10764100       0.07499200 
Al      2.02603000       0.00863000       6.05519000       13      -0.08317100      -0.04013400       0.00587700 
Al      8.05185000       2.00581000       6.06184000       13       0.07811900       0.03463800      -0.03692900 
Al      8.05676000       4.03182000       8.06837000       13       0.03816500      -0.02642100      -0.01093900 
Al      2.00628000       6.01407000       0.00245000       13      -0.02199500       0.22805300       0.00736400 
Al      2.01573000       4.02769000       2.02711000       13       0.22130100      -0.00112200       0.11681800 
Al      0.01940000       6.06503000       2.01580000       13      -0.08238200      -0.00273700      -0.04245700 
Al      0.01144000       4.02282000       4.02399000       13      -0.03915300       0.09933900       0.13911100 
Al      2.03059000       6.04751000       4.03477000       13       0.13114500      -0.16703000       0.04173900 
Al      2.03450000       4.02644000       6.04892000       13      -0.00080700       0.04269800      -0.19837100 
Al      8.05934000       6.08359000       6.07146000       13       0.13421900      -0.13509900      -0.09202100 
Al      4.03867000       8.06113000       8.03430000       13      -0.06674700       0.00885400       0.14640200 
Al      6.05287000       1.99303000       0.01851000       13      -0.04103900       0.08237500      -0.06188500 
Al      6.03117000       8.05960000       2.02221000       13       0.14142000       0.00473700      -0.02670200 
Al      4.05693000       1.99357000       2.03474000       13      -0.07324100       0.28419500       0.03944600 
Al      4.01574000       8.06359000       4.03995000       13       0.07896300       0.00903900       0.02271700 
Al      6.04365000       2.03272000       4.03497000       13      -0.11749200       0.08536700       0.04638400 
Al      6.05501000       8.05473000       6.05180000       13      -0.02680500       0.14600000      -0.04555800 
Al      4.02396000       2.03571000       6.03870000       13       0.11398400       0.12138200      -0.12775400 
Al      4.00600000       4.05597000       8.05981000       13       0.18778500      -0.13646200       0.12951400 
Al      6.06145000       6.06708000       8.04962000       13       0.00093500      -0.04617800       0.16187300 
Al      6.06235000       4.04211000       2.02523000       13      -0.22956100       0.03070500       0.08570000 
Al      4.04229000       6.05989000       2.01534000       13      -0.03658800      -0.16632400       0.12714900 
Al      6.05922000       6.05669000       4.04343000       13      -0.15238100      -0.19467600      -0.02353000 
Al      6.04734000       4.04166000       6.06002000       13      -0.13349600      -0.04219700      -0.16799100 
Al      4.03960000       6.04965000       6.06078000       13      -0.03745100      -0.15534400      -0.23042500 
31
Lattice="8.071125 0.0 0.0 0.0 8.071125 0.0 0.0 0.0 8.071125" Properties=species:S:1:pos:R:3:Z:I:1:force:R:3 energy=-115.3276203 pbc="T T T"
Al      0.00299000       0.01574000       8.05955000       13       0.03461200      -0.04199300       0.12611900 
Al      2.04188000       2.00572000       0.00034000       13      -0.10194600       0.03386800       0.03432600 
Al      1.99730000       0.02768000       2.03071000       13       0.08447500      -0.12478900      -0.15782500 
Al      8.06971000       2.03332000       2.02752000       13      -0.02726800      -0.10878400      -0.08137000 
Al      0.00942000       8.06063000       4.02954000       13      -0.04433700       0.08870200       0.03322900 
Al      2.03795000       2.03802000       4.02598000       13       0.08423700       0.09593000       0.08620900 
Al      2.02738000       0.01006000       6.05550000       13      -0.09966300      -0.05357300      -0.00175200 
Al      8.04865000       2.00382000       6.06326000       13       0.09088600       0.04892100      -0.04654000 
Al      8.05437000       4.03119000       8.06791000       13       0.04093800      -0.03189100      -0.00889700 
Al      2.00436000       6.00758000       0.00286000       13      -0.02582800       0.27257200       0.00870100 
Al      2.01545000       4.02637000       2.02871000       13       0.23307100       0.00309400       0.10068300 
Al      0.02261000       6.06698000       2.01545000       13      -0.09527300      -0.00997200      -0.04444500 
Al      0.01334000       4.02072000       4.02209000       13      -0.04125300       0.11087200       0.15701500 
Al      2.03277000       6.04649000       4.03465000       13       0.11379200      -0.16680300       0.04950000 
Al      2.03730000       4.02493000       6.04812000       13      -0.02624300       0.04743200      -0.20394600 
Al      8.05741000       6.08860000       6.07446000       13       0.16049700      -0.16242900      -0.11393900 
Al      4.03917000       8.05947000       8.02820000       13      -0.07686900       0.00649900       0.18070200 
Al      6.05278000       1.98892000       0.02159000       13      -0.04974900       0.10525500      -0.07404100 
Al      6.02751000       8.05768000       2.02294000       13       0.16358100       0.00866400      -0.03114900 
Al      4.06048000       1.98961000       2.03759000       13      -0.09054200       0.30048500       0.01633000 
Al      4.01245000       8.06234000       4.04068000       13       0.09032800       0.00847700       0.02470900 
Al      6.04200000       2.03524000       4.03488000       13      -0.10994300       0.07157600       0.05302500 
Al      6.05529000       8.05203000       6.05154000       13      -0.03735800       0.17038400      -0.05721000 
Al      4.02205000       2.03874000       6.03622000       13       0.13253000       0.10075700      -0.11857900 
Al      4.00112000       4.05934000       8.05795000       13       0.21829300      -0.16002800       0.14797300 
Al      6.06280000       6.06936000       8.04607000       13      -0.00415300      -0.05910300       0.19526200 
Al      6.06378000       4.04321000       2.02651000       13      -0.24483300       0.03145200       0.06911300 
Al      4.04341000       6.06093000       2.01498000       13      -0.04104000      -0.16561100       0.12001800 
Al      6.06015000       6.05719000       4.04473000       13      -0.15003000      -0.19988400      -0.02755600 
Al      6.04629000       4.04267000       6.06108000       13      -0.12561600      -0.05140100      -0.17050700 
Al      4.04026000       6.04898000       6.06195000       13      -0.04471500      -0.15467800      -0.23929000 
31
Lattice="8.071125 0.0 0.0 0.0 8.071125 0.0 0.0 0.0 8.071125" Properties=species:S:1:pos:R:3:Z:I:1:force:R:3 energy=-115.31204469 pbc="T T T"
Al      0.00343000       0.01797000       8.05793000       13       0.04074300      -0.04829800       0.14079100 
Al      2.04529000       2.00400000       0.00040000       13      -0.11656000       0.04314300       0.03935200 
Al      1.99439000       0.03161000       2.03252000       13       0.10053400      -0.14364000      -0.17189700 