17
Lattice="5.70716 0.0 0.0 -2.85357988 4.94254561 0.0 4.2e-07 7.3e-07 22.9592" Properties=species:S:1:pos:R:3:Z:I:1:force:R:3 energy=-59.84894862 pbc="T T T"
Al      2.84472000       4.87561000      14.86915000       13       0.00434300       0.00024900       0.00370800 
Al      5.70441000       0.00448000       8.03415000       13       0.00106000       0.00077700       0.00108400 
Al     -0.00874000       1.64203000      12.59776000       13      -0.00487800       0.00323900       0.00151900 
Al      1.41213000       0.82328000      10.34391000       13       0.00157800       0.00089600       0.00098000 
Al      4.21842000       2.49665000      14.86942000       13       0.00197900       0.00168500       0.00226500 
Al      4.28296000       2.46639000       8.03401000       13       0.00236800      -0.00092200       0.00135400 
Al     -1.42043000       4.12197000      12.61315000       13       0.00188300       0.00124600      -0.00100400 
Al     -0.00676000       3.28125000      10.34338000       13      -0.00056300      -0.00271500       0.00240500 
Al     -0.00426000       4.93900000      15.01650000       13       0.00217000       0.00356700       0.00283700 
Al     -0.00296000       4.94076000       8.04876000       13       0.00053000      -0.00072400       0.00580900 
Al      2.84285000       1.62286000      12.61560000       13       0.00017300      -0.00028500       0.00048300 
Al      4.28244000       0.82336000      10.34318000       13      -0.00062300      -0.00082600       0.00202800 
Al      1.45207000       2.48502000      14.88913000       13       0.00465400       0.00070200      -0.00222500 
Al      1.41883000       2.46631000       8.03771000       13       0.00005700      -0.00035900       0.00072500 
Al      1.40039000       4.12109000      12.61547000       13      -0.00114700      -0.00240100       0.00014500 
Al      2.84768000       3.29033000      10.36387000       13       0.00255300      -0.00029100       0.00164000 
Al     -0.05103000       1.61814000      16.91910000       13       0.00675100       0.00312600       0.00147100 
17
Lattice="5.70716 0.0 0.0 -2.85357988 4.94254561 0.0 4.2e-07 7.3e-07 22.9592" Properties=species:S:1:pos:R:3:Z:I:1:force:R:3 energy=-59.84809944 pbc="T T T"
Al      2.84473000       4.87780000      14.86774000       13      -0.00380700      -0.02594200      -0.00655800 
Al      0.00020000       0.00283000       8.03440000       13      -0.02142700       0.01891800      -0.00160200 
Al     -0.01197000       1.64588000      12.59977000       13       0.00860600      -0.02112600      -0.00569400 
Al      1.41154000       0.82546000      10.34547000       13       0.01561600       0.00204500      -0.00155000 
Al      4.21933000       2.49520000      14.86879000       13      -0.01590400       0.01501800      -0.00288400 
Al     -1.42186000       2.46915000       8.03288000       13      -0.01314700      -0.03434700       0.00557900 
Al     -1.41948000       4.12338000      12.61364000       13      -0.00602500       0.00302500       0.00091300 
Al     -0.01027000       3.27933000      10.34496000       13       0.01325200       0.01588900      -0.00563200 
Al     -0.00698000       4.93841000      15.01626000       13       0.01770600      -0.00132200       0.00111800 
Al     -0.00521000       4.93442000       8.04936000       13       0.01921300       0.02601400       0.01493500 
Al      2.84207000       1.62160000      12.61726000       13       0.00047300      -0.00102300      -0.01044100 
Al      4.28518000       0.82526000      10.34307000       13      -0.02870100      -0.00552900      -0.00497900 
Al      1.45353000       2.48297000      14.88746000       13       0.00963700       0.01769500      -0.00176100 
Al      1.42045000       2.46544000       8.03779000       13       0.00339500      -0.00159800       0.00199100 
Al      1.40265000       4.11963000      12.61501000       13      -0.01238500       0.00988100       0.00758100 
Al      2.84538000       3.29523000      10.36701000       13       0.00429100      -0.02080300      -0.01782700 
Al     -0.05092000       1.61654000      16.91335000       13       0.00620100       0.00333400       0.02926200 
17
Lattice="5.70716 0.0 0.0 -2.85357988 4.94254561 0.0 4.2e-07 7.3e-07 22.9592" Properties=species:S:1:pos:R:3:Z:I:1:force:R:3 energy=-59.84598017 pbc="T T T"
Al      2.84475000       4.87999000      14.86634000       13      -0.01253200      -0.04736600      -0.01810300 
Al      0.00316000       0.00118000       8.03465000       13      -0.03767100       0.02730100      -0.00334100 
Al     -0.01519000       1.64974000      12.60179000       13       0.01947200      -0.03403000      -0.01901900 
Al      1.41095000       0.82764000      10.34704000       13       0.03442400      -0.00009700      -0.00281500 
Al      4.22024000       2.49375000      14.86816000       13      -0.02793100       0.02610100      -0.00593600 
Al     -1.41951000       2.47191000       8.03175000       13      -0.02923800      -0.06549000       0.01130000 
Al     -1.41853000       4.12479000      12.61414000       13      -0.01159100       0.00652300      -0.00116700 
Al     -0.01379000       3.27742000      10.34653000       13       0.02233100       0.02928200      -0.00687900 
Al     -0.00970000       4.93782000      15.01602000       13       0.03012200      -0.00819300       0.00067600 
Al     -0.00745000       4.92807000       8.04996000       13       0.04576600       0.06234100       0.02811100 
Al      2.84129000       1.62034000      12.61893000       13       0.00370100       0.00017500      -0.02513200 
Al      4.28792000       0.82715000      10.34297000       13      -0.05455300      -0.00876500      -0.00467700 
Al      1.45498000       2.48092000      14.88579000       13       0.00541300       0.03732900       0.00173200 
Al      1.42208000       2.46456000       8.03786000       13       0.00895600      -0.00426700       0.00724600 
Al      1.40492000       4.11817000      12.61456000       13      -0.01820600       0.02161200       0.01495900 
Al      2.84307000       3.30013000      10.37013000       13       0.00782200      -0.04362900      -0.03107000 
Al     -0.05080000       1.61494000      16.90760000       13       0.01551300       0.00954100       0.05556800 
17
Lattice="5.70716 0.0 0.0 -2.85357988 4.94254561 0.0 4.2e-07 7.3e-07 22.9592" Properties=species:S:1:pos:R:3:Z:I:1:force:R:3 energy=-59.84259587 pbc="T T T"
Al      2.84477000       4.88218000      14.86493000       13      -0.02145300      -0.07359900      -0.02779100 
Al     -2.84747000       4.94208000       8.03490000       13      -0.06742700       0.03981700      -0.00238600 
Al     -0.01842000       1.65359000      12.60381000       13       0.02351800      -0.04642000      -0.02626700 
Al      1.41037000       0.82982000      10.34861000       13       0.04927800       0.00118600      -0.00420300 
Al      4.22115000       2.49231000      14.86753000       13      -0.04288300       0.03722800      -0.00742700 
Al     -1.41717000       2.47466000       8.03062000       13      -0.04343600      -0.10059000       0.01261500 
Al     -1.41758000       4.12620000      12.61464000       13      -0.01593000       0.01366200       0.00003900 
Al     -0.01729000       3.27551000      10.34811000       13       0.03360700       0.04273200      -0.01052800 
Al     -0.01241000       4.93723000      15.01579000       13       0.04394900      -0.01343800       0.00053200 
Al     -0.00969000       4.92173000       8.05057000       13       0.07098800       0.09026100       0.03613300 
Al      2.84050000       1.61909000      12.62059000       13       0.00568100      -0.00051300      -0.03600900 
Al      4.29065000       0.82904000      10.34287000       13      -0.07904400      -0.00951400      -0.00890600 
Al      1.45644000       2.47887000      14.88412000       13       0.00559700       0.05558100       0.00674500 
Al      1.42371000       2.46368000       8.03794000       13       0.01239500      -0.00604200       0.01251800 
Al      1.40718000       4.11671000      12.61411000       13      -0.02482400       0.03142700       0.02109200 
Al      2.84077000       3.30502000      10.37326000       13       0.01215100      -0.06577900      -0.04722700 
Al     -0.05069000       1.61335000      16.90187000       13       0.02067000       0.01416000       0.08415600 
17
Lattice="5.70716 0.0 0.0 -2.85357988 4.94254561 0.0 4.2e-07 7.3e-07 22.9592" Properties=species:S:1:pos:R:3:Z:I:1:force:R:3 energy=-59.83792626 pbc="T T T"
Al      2.84478000       4.88436000      14.86352000       13      -0.02443800      -0.10414100      -0.03683800 
Al     -2.84453000       4.94043000       8.03515000       13      -0.08436700       0.05033500      -0.00334400 
Al     -0.02165000       1.65743000      12.60582000       13       0.03165700      -0.06147800      -0.03743700 
Al      1.40979000       0.83200000      10.35018000       13       0.06703600       0.00440600      -0.00249000 
Al      4.22205000       2.49087000      14.86690000       13      -0.05788600       0.04853600      -0.01152800 
Al     -1.41483000       2.47740000       8.02950000       13      -0.05529400      -0.12875000       0.02123800 
Al     -1.41663000       4.12762000      12.61514000       13      -0.01926800       0.01278900      -0.00075700 
Al     -0.02080000       3.27360000      10.34968000       13       0.04810600       0.06089400      -0.01729200 
Al     -0.01512000       4.93665000      15.01555000       13       0.06084300      -0.01561000      -0.00066300 
Al     -0.01192000       4.91540000       8.05117000       13       0.09256800       0.12352200       0.04324000 
Al      2.83972000       1.61783000      12.62225000       13       0.01386500      -0.00395500      -0.04719800 
Al      4.29338000       0.83093000      10.34276000       13      -0.10912600      -0.01750200      -0.01490100 
Al      1.45789000       2.47683000      14.88244000       13       0.01163500       0.07418200       0.00931300 
Al      1.42533000       2.46281000       8.03802000       13       0.01576100      -0.00955100       0.01862900 
Al      1.40944000       4.11525000      12.61366000       13      -0.03319100       0.04230200       0.03126400 
Al      2.83846000       3.30991000      10.37638000       13       0.01677200      -0.08394900      -0.06480700 
Al     -0.05057000       1.61175000      16.89613000       13       0.02909200       0.02070400       0.12032700 
17
Lattice="5.70716 0.0 0.0 -2.85357988 4.94254561 0.0 4.2e-07 7.3e-07 22.9592" Properties=species:S:1:pos:R:3:Z:I:1:force:R:3 energy=-59.83196037 pbc="T T T"
Al      2.84479000       4.88653000      14.86210000       13      -0.03688500      -0.12832700      -0.04848000 
Al     -2.84159000       4.93879000       8.03540000       13      -0.09857700       0.05931500      -0.00419800 
Al     -0.02487000       1.66127000      12.60783000       13       0.04797200      -0.08386600      -0.04380600 
Al      1.40922000       0.83418000      10.35174000       13       0.08037300      -0.00715700      -0.00569300 
Al      4.22295000       2.48943000      14.86627000       13      -0.07501800       0.06381300      -0.01109000 
Al     -1.41250000       2.48014000       8.02837000       13      -0.06952000      -0.15803600       0.02485300 
Al     -1.41568000       4.12903000      12.61563000       13      -0.02465000       0.01728200       0.00473800 
Al     -0.02430000       3.27170000      10.35125000       13       0.06377600       0.07930200      -0.02744400 
Al     -0.01782000       4.93605000      15.01531000       13       0.07207400      -0.01938200       0.00515300 
Al     -0.01414000       4.90907000       8.05179000       13       0.11146200       0.15129200       0.04678100 
Al      2.83894000       1.61657000      12.62390000       13       0.01501200      -0.00260500      -0.06169900 
Al      4.29609000       0.83282000      10.34265000       13      -0.13147200      -0.02191200      -0.01542900 
Al      1.45935000       2.47480000      14.88077000       13       0.01276100       0.09605300       0.01186800 
Al      1.42696000       2.46193000       8.03810000       13       0.02098000      -0.01128400       0.02713600 
Al      1.41170000       4.11380000      12.61321000       13      -0.04284800       0.05543700       0.03637700 
Al      2.83616000       3.31479000      10.37950000       13       0.02935400      -0.10618700      -0.08195600 
Al     -0.05045000       1.61015000      16.89041000       13       0.03715800       0.02625400       0.14945400 
17
Lattice="5.70716 0.0 0.0 -2.85357988 4.94254561 0.0 4.2e-07 7.3e-07 22.9592" Properties=species:S:1:pos:R:3:Z:I:1:force:R:3 energy=-59.82481744 pbc="T T T"
Al      2.84480000       4.88869000      14.86069000       13      -0.04611300      -0.15184100      -0.05745400 
Al     -2.83867000       4.93716000       8.03565000       13      -0.11632700       0.06609500      -0.00675500 
Al     -0.02809000       1.66511000      12.60984000       13       0.05383800      -0.09975400      -0.05343100 
Al      1.40865000       0.83636000      10.35331000       13       0.09209700      -0.00808200      -0.01003800 
Al      4.22385000       2.48800000      14.86564000       13      -0.08992800       0.07700800      -0.01297800 
Al     -1.41018000       2.48285000       8.02725000       13      -0.07920700      -0.18403800       0.02917600 
Al     -1.41474000       4.13045000      12.61613000       13      -0.02614800       0.02023000       0.00645200 
Al     -0.02780000       3.26980000      10.35282000       13       0.07523900       0.09814500      -0.03392100 
Al     -0.02051000       4.93546000      15.01508000       13       0.08452200      -0.02320100       0.00609600 
Al     -0.01635000       4.90277000       8.05240000       13       0.13666200       0.18242900       0.05236400 
Al      2.83816000       1.61531000      12.62555000       13       0.01956700      -0.00529300      -0.07181800 
Al      4.29880000       0.83471000      10.34254000       13      -0.16301000      -0.03190200      -0.01812600 
Al      1.46081000       2.47277000      14.87910000       13       0.01684800       0.11022700       0.01613100 
Al      1.42859000       2.46105000       8.03818000       13       0.02410800      -0.01672500       0.02718900 
Al      1.41395000       4.11235000      12.61276000       13      -0.05566700       0.06885500       0.03936000 
Al      2.83386000       3.31966000      10.38261000       13       0.03204100      -0.12550600      -0.09396300 
Al     -0.05033000       1.60856000      16.88470000       13       0.03852900       0.03496400       0.18613300 
17
Lattice="5.70716 0.0 0.0 -2.85357988 4.94254561 0.0 4.2e-07 7.3e-07 22.9592" Properties=species:S:1:pos:R:3:Z:I:1:force:R:3 energy=-59.81643266 pbc="T T T"
Al      2.84480000       4.89084000      14.85926000       13      -0.05315300      -0.18070600      -0.06624700 
Al     -2.83575000       4.93553000       8.03589000       13      -0.13163900       0.07701800      -0.00481800 
Al     -0.03130000       1.66893000      12.61184000       13       0.06353400      -0.11529800      -0.06275900 
Al      1.40809000       0.83854000      10.35488000       13       0.10527100      -0.00639600      -0.01083100 
Al      4.22473000       2.48658000      14.86501000       13      -0.10776200       0.08581100      -0.01476100 
Al     -1.40786000       2.48556000       8.02613000       13      -0.09427400      -0.21202100       0.03010700 
Al     -1.41380000       4.13186000      12.61663000       13      -0.03136700       0.01975700       0.01023200 
Al     -0.03129000       3.26792000      10.35438000       13       0.08764900       0.11847600      -0.04034500 
Al     -0.02320000       4.93487000      15.01484000       13       0.09777400      -0.02574500       0.01143900 
Al     -0.01855000       4.89647000       8.05302000       13       0.16045800       0.21127700       0.05811900 
Al      2.83739000       1.61405000      12.62719000       13       0.02520500      -0.00566500      -0.08431400 
Al      4.30149000       0.83659000      10.34243000       13      -0.18666500      -0.03273900      -0.02650000 
Al      1.46227000       2.47076000      14.87743000       13       0.01905100       0.12932900       0.02284200 
Al      1.43022000       2.46017000       8.03826000       13       0.02996800      -0.01929700       0.03324900 
Al      1.41620000       4.11091000      12.61232000       13      -0.06755400       0.07884200       0.04847900 
Al      2.83156000       3.32451000      10.38571000       13       0.03825200      -0.14978400      -0.11565900 
Al     -0.05021000       1.60697000      16.87901000       13       0.04243000       0.03960200       0.21977500 
17
Lattice="5.70716 0.0 0.0 -2.85357988 4.94254561 0.0 4.2e-07 7.3e-07 22.9592" Properties=species:S:1:pos:R:3:Z:I:1:force:R:3 energy=-59.80685501 pbc="T T T"
Al      2.84480000       4.89297000      14.85783000       13      -0.05825700      -0.20625300      -0.07875600 
Al     -2.83284000       4.93391000       8.03614000       13      -0.15421900       0.08569600      -0.00864100 
Al     -0.03451000       1.67274000      12.61383000       13       0.07936700      -0.13094200      -0.07148100 
Al      1.40754000       0.84072000      10.35644000       13       0.12017700      -0.00504700      -0.01534600 
Al      4.22561000       2.48517000      14.86437000       13      -0.12700400       0.09871800      -0.01722200 
Al     -1.40555000       2.48824000       8.02502000       13      -0.10798100      -0.23881800       0.03722200 
Al     -1.41286000       4.13328000      12.61713000       13      -0.03654400       0.02483700       0.01091700 
Al     -0.03477000       3.26604000      10.35595000       13       0.09399400       0.13235300      -0.04556900 
Al     -0.02588000       4.93427000      15.01460000       13       0.10667700      -0.03180900       0.01573100 
Al     -0.02074000       4.89020000       8.05365000       13       0.18760600       0.23947800       0.06543200 
Al      2.83661000       1.61279000      12.62883000       13       0.02831400      -0.00494800      -0.09814600 
Al      4.30416000       0.83847000      10.34232000       13      -0.20685300      -0.03575300      -0.03233100 
Al      1.46373000       2.46875000      14.87577000       13       0.01995400       0.15206300       0.03281600 
Al      1.43186000       2.45929000       8.03835000       13       0.03717800      -0.02435200       0.03706200 
Al      1.41844000       4.10948000      12.61188000       13      -0.07857000       0.09334100       0.05579600 
Al      2.82926000       3.32936000      10.38880000       13       0.04185300      -0.17438300      -0.12984900 
Al     -0.05008000       1.60539000      16.87334000       13       0.04712500       0.04778800       0.25342200 
17
Lattice="5.70716 0.0 0.0 -2.85357988 4.94254561 0.0 4.2e-07 7.3e-07 22.9592" Properties=species:S:1:pos:R:3:Z:I:1:force:R:3 energy=-59.79605406 pbc="T T T"
Al      2.84479000       4.89508000      14.85640000       13      -0.06715000      -0.23147900      -0.09140900 
Al     -2.82995000       4.93230000       8.03639000       13      -0.17285700       0.09736500      -0.01385900 
Al     -0.03771000       1.67655000      12.61582000       13       0.08887000      -0.15226700      -0.07583400 
Al      1.40701000       0.84290000      10.35800000       13       0.13339200      -0.00132000      -0.01422400 
Al      4.22647000       2.48376000      14.86373000       13      -0.14320100       0.11018400      -0.02113000 
Al     -1.40324000       2.49090000       8.02390000       13      -0.12461500      -0.27843700       0.03906800 
Al     -1.41193000       4.13470000      12.61763000       13      -0.04102200       0.02953100       0.01141700 
Al     -0.03824000       3.26418000      10.35750000       13       0.11188100       0.15103400      -0.05041500 
Al     -0.02855000       4.93367000      15.01437000       13       0.12503700      -0.03897500       0.01593600 
Al     -0.02291000       4.88395000       8.05428000       13       0.20958900       0.27442000       0.07314700 
Al      2.83584000       1.61153000      12.63046000       13       0.03045500      -0.00252800      -0.11583900 
Al      4.30682000       0.84035000      10.34220000       13      -0.23262100      -0.04288500      -0.03525600 
Al      1.46520000       2.46676000      14.87410000       13       0.02334500       0.16729400       0.03491000 
Al      1.43350000       2.45840000       8.03844000       13       0.04241800      -0.02811000       0.04047700 
Al      1.42068000       4.10805000      12.61145000       13      -0.08580500       0.10514600       0.06685700 
Al      2.82697000       3.33419000      10.39188000       13       0.04539000      -0.19171100      -0.14354000 
Al     -0.04994000       1.60380000      16.86769000       13       0.05201700       0.04975400       0.28430800 
17
Lattice="5.70716 0.0 0.0 -2.85357988 4.94254561 0.0 4.2e-07 7.3e-07 22.9592" Properties=species:S:1:pos:R:3:Z:I:1:force:R:3 energy=-59.78400909 pbc="T T T"
Al      2.84478000       4.89717000      14.85495000       13      -0.07397800      -0.26014400      -0.10305700 
Al     -2.82708000       4.93069000       8.03663000       13      -0.18564700       0.10640500      -0.01322000 
Al     -0.04090000       1.68034000      12.61780000       13       0.09792300      -0.16782300      -0.08221600 
Al      1.40648000       0.84507000      10.35956000       13       0.15415800      -0.00579400      -0.01815100 
Al      4.22732000       2.48236000      14.86310000       13      -0.15771200       0.12025700      -0.02404900 
Al     -1.40095000       2.49354000       8.02279000       13      -0.13599700      -0.30611400       0.04253400 
Al     -1.41100000       4.13613000      12.61813000       13      -0.04639600       0.02906500       0.01095600 
Al     -0.04170000       3.26233000      10.35906000       13       0.12526400       0.16670400      -0.05751800 
Al     -0.03121000       4.93307000      15.01414000       13       0.14353000      -0.04460000       0.01530000 
Al     -0.02506000       4.87772000       8.05491000       13       0.23539900       0.30149300       0.07905100 
Al      2.83507000       1.61027000      12.63207000       13       0.03174000      -0.00526400      -0.12633700 
Al      4.30945000       0.84222000      10.34209000       13      -0.25823000      -0.05138200      -0.03802500 
Al      1.46666000       2.46479000      14.87244000       13       0.02066300       0.18492300       0.03880400 
Al      1.43514000       2.45751000       8.03853000       13       0.04800400      -0.02995100       0.04451800 
Al      1.42291000       4.10663000      12.61103000       13      -0.09710600       0.11710300       0.07937100 
Al      2.82469000       3.33900000      10.39495000       13       0.04896900      -0.21514000      -0.16363000 
Al     -0.04980000       1.60223000      16.86207000       13       0.06026800       0.05387700       0.32068100 
17
Lattice="5.70716 0.0 0.0 -2.85357988 4.94254561 0.0 4.2e-07 7.3e-07 22.9592" Properties=species:S:1:pos:R:3:Z:I:1:force:R:3 energy=-59.77068841 pbc="T T T"
Al      2.84476000       4.89924000      14.85350000       13      -0.08119900      -0.28437200      -0.11427500 
Al     -2.82422000       4.92910000       8.03688000       13      -0.20878200       0.11652600      -0.01486200 
Al     -0.04408000       1.68411000      12.61978000       13       0.11190400      -0.18961600      -0.09173900 
Al      1.40597000       0.84725000      10.36112000       13       0.16454900      -0.00652300      -0.02331400 
Al      4.22816000       2.48098000      14.86246000       13      -0.17267600       0.13441800      -0.02139400 
Al     -1.39868000       2.49615000       8.02169000       13      -0.14555800      -0.33762900       0.05123100 
Al     -1.41007000       4.13755000      12.61863000       13      -0.05126900       0.03307200       0.00862200 
Al     -0.04515000       3.26049000      10.36060000       13       0.13848300       0.18716400      -0.06284300 
Al     -0.03386000       4.93246000      15.01391000       13       0.15449300      -0.05289400       0.01645900 
Al     -0.02719000       4.87152000       8.05556000       13       0.26125400       0.33677900       0.08238300 
Al      2.83430000       1.60901000      12.63368000       13       0.03466500      -0.00138500      -0.14031300 
Al      4.31206000       0.84409000      10.34196000       13      -0.28766600      -0.05741500      -0.04400200 
Al      1.46813000       2.46283000      14.87078000       13       0.02343200       0.20200800       0.04137900 
Al      1.43678000       2.45662000       8.03863000       13       0.05698100      -0.03469500       0.04886500 
Al      1.42513000       4.10523000      12.61061000       13      -0.10625300       0.12598900       0.08665200 
Al      2.82241000       3.34379000      10.39800000       13       0.05530300      -0.23415400      -0.18121100 
Al     -0.04966000       1.60065000      16.85647000       13       0.06276200       0.06390500       0.36171200 
17
Lattice="5.70716 0.0 0.0 -2.85357988 4.94254561 0.0 4.2e-07 7.3e-07 22.9592" Properties=species:S:1:pos:R:3:Z:I:1:force:R:3 energy=-59.75622306 pbc="T T T"
Al      2.84474000       4.90128000      14.85203000       13      -0.08811900      -0.31222400      -0.11911000 
Al     -2.82137000       4.92751000       8.03712000       13      -0.22215200       0.12445000      -0.01520900 
Al     -0.04725000       1.68786000      12.62175000       13       0.12303800      -0.20568500      -0.09971800 
Al      1.40547000       0.84943000      10.36268000       13       0.18230000      -0.00900700      -0.02597500 
Al      4.22898000       2.47960000      14.86181000       13      -0.18958700       0.14488600      -0.02452900 
Al     -1.39641000       2.49872000       8.02058000       13      -0.15955900      -0.36937100       0.05312600 
Al     -1.40915000       4.13898000      12.61913000       13      -0.05517100       0.03625400       0.00865600 
Al     -0.04859000       3.25867000      10.36215000       13       0.15095100       0.20460500      -0.06894200 
Al     -0.03649000       4.93185000      15.01368000       13       0.16425000      -0.05965600       0.01944800 
Al     -0.02929000       4.86535000       8.05621000       13       0.28005200       0.36371700       0.09007000 
Al      2.83354000       1.60775000      12.63527000       13       0.03584200      -0.00102800      -0.15390300 
Al      4.31465000       0.84596000      10.34184000       13      -0.32033200      -0.06455600      -0.05484700 
Al      1.46960000       2.46089000      14.86913000       13       0.02687800       0.21618600       0.04533000 
Al      1.43844000       2.45573000       8.03873000       13       0.06593100      -0.03950700       0.05312000 
Al      1.42733000       4.10383000      12.61020000       13      -0.11909800       0.14012800       0.08994900 
Al      2.82013000       3.34856000      10.40103000       13       0.05717300      -0.25492200      -0.20373500 
Al     -0.04951000       1.59909000      16.85091000       13       0.06452200       0.06775300       0.39821300 
17
Lattice="5.70716 0.0 0.0 -2.85357988 4.94254561 0.0 4.2e-07 7.3e-07 22.9592" Properties=species:S:1:pos:R:3:Z:I:1:force:R:3 energy=-59.74073208 pbc="T T T"
Al      2.84470000       4.90329000      14.85056000       13      -0.09555400      -0.33903100      -0.12905700 
Al     -2.81855000       4.92594000       8.03736000       13      -0.23561000       0.12962300      -0.01664800 
Al     -0.05042000       1.69160000      12.62370000       13       0.12993000      -0.22022200      -0.10911900 
Al      1.40499000       0.85160000      10.36424000       13       0.19618000      -0.00724100      -0.02586100 
Al      4.22979000       2.47824000      14.86117000       13      -0.20370200       0.15652300      -0.02563700 
Al     -1.39416000       2.50127000       8.01949000       13      -0.17668800      -0.39730200       0.05133400 
Al     -1.40823000       4.14041000      12.61964000       13      -0.05968900       0.03922400       0.00990000 
Al     -0.05202000       3.25687000      10.36368000       13       0.16243900       0.21908300      -0.07110500 
Al     -0.03911000       4.93123000      15.01345000       13       0.17366700      -0.06476600       0.02309200 
Al     -0.03137000       4.85921000       8.05687000       13       0.30499000       0.39218100       0.09286200 
Al      2.83278000       1.60649000      12.63685000       13       0.04002100      -0.00251300      -0.16445300 
Al      4.31721000       0.84781000      10.34171000       13      -0.34137200      -0.06835900      -0.06036600 
Al      1.47107000       2.45897000      14.86748000       13       0.02899100       0.23050800       0.05351200 
Al      1.44009000       2.45483000       8.03883000       13       0.07087800      -0.04249300       0.05913200 
Al      1.42953000       4.10245000      12.60979000       13      -0.13499700       0.15091300       0.10295100 
Al      2.81786000       3.35331000      10.40405000       13       0.06193300      -0.27905900      -0.21829100 
Al     -0.04936000       1.59752000      16.84538000       13       0.06997500       0.07665600       0.42690800 
17
Lattice="5.70716 0.0 0.0 -2.85357988 4.94254561 0.0 4.2e-07 7.3e-07 22.9592" Properties=species:S:1:pos:R:3:Z:I:1:force:R:3 energy=-59.72416223 pbc="T T T"
Al      2.84466000       4.90527000      14.84907000       13      -0.10193100      -0.36328100      -0.14036700 
Al     -2.81575000       4.92438000       8.03760000       13      -0.25406700       0.14140500      -0.02001800 
Al     -0.05357000       1.69532000      12.62565000       13       0.14321400      -0.23696900      -0.12343300 
Al      1.40453000       0.85378000      10.36579000       13       0.20818000      -0.01034500      -0.03273200 