129
Lattice="16.14224916 0.0 0.0 0.0 11.414293845 0.0 0.0 0.0 29.987507114" Properties=species:S:1:pos:R:3:Z:I:1:force:R:3 energy=-442.66693716 pbc="T T T"
Al      2.09229000       1.40605000      10.09715000       13      -0.16476200      -0.76077200      -0.12806700 
Al      6.28180000       1.39166000       9.96488000       13      -0.48726600       0.28314800       0.14302200 
Al     10.32579000       1.54190000       9.92958000       13      -0.18143200      -0.82976200       0.07314200 
Al     14.20585000       1.35727000       9.93014000       13      -0.30985000      -0.19523800       0.36574600 
Al      2.05408000       3.99337000       9.74126000       13      -0.06994300       0.82942900       0.23561000 
Al      5.96900000       4.12844000      10.04714000       13      -0.07004700       0.08148600       0.16420300 
Al      9.95270000       4.06851000      10.21985000       13       1.08378800       0.95558300      -1.07208500 
Al     14.09060000       4.29049000       9.78629000       13      -0.15429500       0.06427300       0.51882600 
Al      1.93612000       7.15057000       9.82735000       13       0.56243100      -0.64856700       0.34356100 
Al      6.10970000       7.04384000       9.95625000       13       0.19934300       0.20124800       0.37400800 
Al      9.99865000       7.41178000       9.99798000       13      -0.24621100      -1.45113400      -0.09474000 
Al     13.96581000       7.25732000       9.81687000       13       0.47065700      -0.34026500       0.02515800 
Al      2.04911000       9.69356000       9.80077000       13      -0.01604000       1.10175600       0.55501000 
Al      6.08287000      10.09828000      10.02571000       13      -0.16250100      -0.31397400      -0.06771100 
Al     10.07156000       9.94234000       9.77822000       13       0.13708500       1.04608900       0.36210700 
Al     14.01649000       9.91841000      10.15857000       13       0.34830900       0.66502000      -0.32471400 
Al      0.05154000      11.14984000      11.47540000       13      -0.78789900       1.28832700      -1.45072700 
Al      3.97780000      11.31276000      11.51854000       13       0.27688700       0.04616700      -0.51055000 
Al      8.22577000       0.13969000      11.30090000       13       0.00707900      -0.37376000      -0.14047800 
Al     12.06031000       0.04969000      11.57312000       13       0.54310800      -0.23341600      -0.84369700 
Al     16.07037000       2.82572000      11.26084000       13       0.25499900       0.27065500      -0.07527200 
Al      3.85613000       2.97545000      11.63022000       13       1.90780500      -0.86175900      -0.97164600 
Al      8.06032000       3.00410000      11.48103000       13      -0.78209100      -2.19107600       0.56851200 
Al     12.00992000       2.90778000      11.65749000       13       0.48731900       0.12108200      -0.33988600 
Al     16.13688000       5.94184000      11.03382000       13      -0.26712300      -1.22795500       0.28760800 
Al      4.15885000       5.72020000      11.38194000       13      -0.29732100       0.03438200      -0.10059700 
Al      8.08489000       5.40901000      11.39384000       13      -0.79738700       2.35878400      -0.14853100 
Al     12.16025000       5.92883000      11.34905000       13      -0.84194800      -1.22624100      -0.27699900 
Al     16.02098000       8.48546000      11.56410000       13       0.84570900      -0.48601500      -1.43474900 
Al      4.08487000       8.48126000      11.50378000       13      -0.27431700       0.13941400      -0.30631200 
Al      8.08569000       8.70602000      11.32148000       13      -0.00217300      -0.53140700      -0.18848800 
Al     12.05754000       8.50190000      11.20726000       13      -0.08876600       0.79086500       0.76920900 
Al      2.06220000       1.46595000      12.85434000       13      -0.11838800      -0.13776000      -0.20035600 
Al      6.01816000       1.21448000      12.79048000       13       0.10822000       0.66605600       0.09660300 
Al     10.03750000       1.30645000      12.82938000       13       0.30751100       0.66355600       0.20607200 
Al     14.18508000       1.70971000      12.87976000       13      -0.11836400      -0.60402900       0.04922900 
Al      2.05641000       4.26919000      12.56576000       13      -1.22356700       0.97698300       0.73815500 
Al      6.04937000       4.28939000      13.22306000       13       0.16105300      -0.09893700      -0.31135300 
Al     10.06005000       4.32559000      12.84837000       13       0.39595200      -0.17396000       1.09288400 
Al     13.94917000       4.45178000      12.96636000       13       0.37125900      -1.44331700      -0.67472400 
Al      2.13644000       6.99753000      13.06399000       13      -0.45961900       0.52132700      -1.59894400 
Al      5.84307000       7.22196000      13.18214000       13       0.83081900      -1.33708000      -3.75904400 
Al      9.94033000       7.04899000      12.86852000       13       0.77630100       0.09522500      -0.68941500 
Al     14.04895000       6.90133000      12.86386000       13       0.24758800       1.66442700      -0.31455900 
Al      1.85844000      10.05855000      12.71566000       13       1.37280400      -1.00385600       0.61810300 
Al      6.28583000       9.87002000      12.80526000       13      -0.90458900       0.59396800      -0.04944900 
Al     10.21093000       9.80288000      12.88769000       13      -0.39280900       0.46681200      -1.33074100 
Al     14.32054000       9.74638000      12.88127000       13      -1.66172400       0.83837300       0.77730800 
Al      0.03898000       0.11727000      14.09482000       13      -0.66677700      -0.07984100       0.83101800 
Al      3.83749000       0.07829000      14.32491000       13       1.13737600      -1.05857000      -0.52773000 
Al      8.10870000       0.05197000      14.17836000       13      -0.08293900      -0.66753800       0.30036500 
Al     12.14152000       0.04396000      14.17321000       13       1.07510300       0.41090800       0.30849000 
Al      0.27987000       2.92465000      14.10166000       13      -1.07038600      -0.36229200      -0.10484700 
Al      4.13405000       2.70737000      14.39842000       13      -0.21367800       0.66658900      -0.31146600 
Al      8.24491000       2.73047000      14.42487000       13      -0.33978300       0.63187100      -0.89740400 
Al     12.16860000       2.97688000      14.56488000       13      -0.46121900      -0.33534400      -1.50269700 
Al     16.10544000       5.59409000      14.14693000       13       0.39603500       0.13534500      -0.03962500 
Al      3.91319000       5.69558000      14.33153000       13       0.54898000      -0.91847700       0.47891600 
Al      8.11263000       5.83122000      14.28231000       13      -0.67136700      -0.77764400       0.28768900 
Al     12.32472000       5.66745000      14.68839000       13      -0.65807500       0.27531000      -1.39037200 
Al      0.09385000       8.43215000      14.11973000       13       0.03544000       0.22337100       0.86647600 
Al      4.10793000       8.52720000      14.38746000       13      -1.95039700       1.40158000      -0.29030500 
Al      8.14211000       8.54980000      14.15334000       13       0.41539400       0.39260900       0.60843900 
Al     11.87946000       8.49374000      14.40882000       13       2.09375400      -1.12002600      -1.07463400 
Al      2.04990000       1.23993000      15.73312000       13      -0.34356600       0.91513400       0.39998700 
Al      6.11114000       1.29421000      15.73021000       13       0.08849900       0.42312600       0.21644100 
Al     10.09764000       1.25534000      15.76082000       13      -0.28315800       0.09727600       0.12730400 
Al     14.20859000       1.58924000      15.86522000       13       0.85255800      -0.98160300      -0.79139500 
Al      1.81113000       4.13969000      15.78440000       13       3.25833600       2.60643400      -1.96772300 
Al      6.13041000       4.35762000      16.28506000       13      -0.52169200       0.63487600      -3.75000600 
Al     10.17454000       4.45070000      15.85025000       13      -0.14457300      -1.94939400      -0.59119300 
Al     14.22218000       4.23307000      15.82099000       13       0.32474400       0.24076900       0.41606800 
Al      1.90186000       7.09841000      15.63434000       13       0.16853500      -0.06791600       1.13667500 
Al      6.06562000       7.48113000      15.42706000       13       0.98359700      -1.47963800       4.00897300 
Al     10.19184000       6.89203000      15.63636000       13      -0.70594800       1.58412000       0.71314300 
Al     14.28781000       7.14358000      15.54549000       13      -0.02005100       0.19678600       1.09616100 
Al      1.91049000      10.08945000      15.59759000       13      -0.05700700      -1.10785800       0.40656200 
Al      6.08581000       9.99434000      15.60941000       13       0.36350200       0.62791000       0.44843700 
Al     10.41050000      10.08259000      15.40338000       13      -2.12022600       0.27419000       2.14004300 
Al     14.15244000       9.88824000      15.83501000       13      -0.13847000       0.14036400      -0.61750300 
Al     16.02337000      11.39708000      17.20968000       13       0.58214900       0.10843100      -0.26416300 
Al      4.16543000      11.23425000      17.08376000       13      -0.48697600       0.50788400       0.42754600 
Al      7.99988000      11.31629000      17.39875000       13       0.75720200       0.34208900      -1.88046000 
Al     12.16743000      11.22516000      17.27161000       13      -0.59281500       0.19680800      -1.52756200 
Al      0.31832000       3.00844000      16.90603000       13      -3.23132400      -3.11489400       2.27822400 
Al      3.96293000       3.04361000      17.02778000       13       0.02826800      -1.13557300       0.80786600 
Al      8.13770000       2.96977000      16.99489000       13       0.51650500      -1.60817800       1.12976100 
Al     12.09776000       2.36738000      16.98028000       13      -0.46517100       1.45959100       1.71161200 
Al     16.10436000       5.51998000      17.37880000       13      -0.06189600       1.25277800      -0.84897600 
Al      3.82104000       5.64114000      17.15354000       13       0.28199700       0.78330900       0.00813700 
Al      8.28732000       5.49177000      17.30841000       13      -0.41484700       1.50002600      -0.09208400 
Al     12.10822000       5.55992000      17.20325000       13       0.78382200       0.41514000       1.07985800 
Al      0.02986000       8.47069000      17.14440000       13      -0.12555400      -0.01622700       0.27868200 
Al      3.97777000       8.57775000      17.23325000       13       0.08249600      -0.13974100      -0.43924800 
Al      8.30903000       8.37505000      17.45389000       13      -1.25059200       0.33868200      -3.10607700 
Al     11.81387000       8.53795000      17.22218000       13       1.29724900      -0.45364400      -0.92527200 
Al      2.05993000       1.33338000      18.52950000       13       0.00734400       0.05232400       0.33424600 
Al      5.97939000       1.33838000      18.68816000       13      -0.03221500       0.42348500      -0.12292100 
Al     10.14246000       1.32285000      18.69566000       13      -0.20689900      -0.03906800      -0.14956200 
Al     14.17056000       1.54872000      18.65516000       13      -0.19123400      -0.38061300       0.00482700 
Al      1.89343000       4.19633000      18.67281000       13       0.74706500       0.04683000       0.77525600 
Al      6.14490000       4.27722000      18.57832000       13      -0.00724100       0.10286300       2.65619500 
Al     10.28056000       4.19162000      18.64278000       13      -1.07403400      -0.05193100      -0.05562500 
Al     14.09414000       4.24771000      18.72554000       13       0.00634600       0.16940100       0.01033100 
Al      2.14159000       7.25596000      18.75654000       13      -0.65613600      -1.00015800      -0.34246200 
Al      6.05649000       7.23623000      18.51418000       13      -0.00636900      -0.29633100       0.01823900 
Al     10.13753000       7.11441000      18.57527000       13       0.44533700      -1.53413900       0.01331100 
Al     14.21374000       7.01120000      18.87458000       13      -0.60378100       0.85453900      -0.60118500 
Al      1.86688000       9.80538000      18.73444000       13       0.40701600       1.51813000      -0.82734000 
Al      6.17209000      10.08113000      18.65497000       13      -0.91932400      -1.11538900       0.36624600 
Al     10.08707000       9.85292000      18.57209000       13       0.30915200       1.18266300       0.21983100 
Al     14.02289000      10.13378000      18.53866000       13       1.30315500      -1.47841400       0.54175600 
Al     16.01842000      11.36609000      20.04945000       13       0.17740700       0.35788000      -0.12384000 
Al      3.95100000      11.29096000      20.02406000       13       0.03535000       0.67201600      -0.25173800 
Al      8.10787000      11.33825000      19.91685000       13       0.23902800       0.03260500       1.19209200 
Al     12.14149000      11.19708000      19.77639000       13      -0.53397800       0.55764100       1.58355100 
Al     16.03448000       2.82156000      20.03414000       13       0.56478800       0.13151800      -0.07056000 
Al      4.25687000       2.98222000      19.96352000       13      -0.67661100      -0.16321600      -0.00353800 
Al      8.06827000       2.70319000      19.98473000       13       0.25603800       0.37536600       0.05179000 
Al     12.06339000       2.90198000      19.86342000       13       0.24580600      -0.71536100       0.81523600 
Al      0.07790000       5.93706000      19.97119000       13       0.53899100      -0.72671800       0.78540600 
Al      4.09582000       5.81067000      19.92732000       13       0.11305700      -0.25343300       0.06434700 
Al      8.10474000       5.70904000      20.00216000       13       0.26264800      -0.32169600       0.41229600 
Al     11.99074000       5.71082000      20.06221000       13       0.11605800      -0.76671000       0.38207600 
Al      0.21767000       8.70461000      20.31048000       13      -0.77870600      -0.58470600      -0.02233200 
Al      3.92046000       8.69157000      20.01501000       13       0.80101400      -0.39538300       0.31519700 
Al      8.39960000       8.43948000      19.86155000       13      -1.17000000       0.28839600       2.30840300 
Al     12.01678000       8.24214000      19.90864000       13       0.45834700       1.35894500       0.43330800 
Al     10.08891000       4.28036000      22.11048000       13       0.02264900       0.00514800      -1.21096500 
129
Lattice="16.14224916 0.0 0.0 0.0 11.414293845 0.0 0.0 0.0 29.987507114" Properties=species:S:1:pos:R:3:Z:I:1:force:R:3 energy=-442.73466569 pbc="T T T"
Al      2.09287000       1.40828000      10.09489000       13      -0.16167600      -0.77367300      -0.11499700 
Al      6.28565000       1.38967000       9.96450000       13      -0.50086000       0.29132100       0.13048700 
Al     10.32273000       1.54599000       9.93117000       13      -0.17562000      -0.85452200       0.08197400 
Al     14.20575000       1.35954000       9.93126000       13      -0.31954300      -0.20328300       0.35839100 
Al      2.05567000       3.99166000       9.73990000       13      -0.07835500       0.84387000       0.23780500 
Al      5.97221000       4.13138000      10.04521000       13      -0.07265200       0.05910500       0.17104600 
Al      9.95445000       4.07002000      10.21963000       13       1.06023300       0.96549000      -1.07500100 
Al     14.08723000       4.28818000       9.78742000       13      -0.14412500       0.07262400       0.51995400 
Al      1.93371000       7.14969000       9.82644000       13       0.56723000      -0.65744100       0.34257400 
Al      6.10778000       7.03657000       9.95628000       13       0.21178900       0.22400200       0.36669100 
Al      9.99833000       7.41007000       9.99916000       13      -0.24135300      -1.45172700      -0.08760900 
Al     13.96951000       7.25924000       9.81608000       13       0.45967100      -0.33183900       0.02489400 
Al      2.05132000       9.69119000       9.79827000       13      -0.01189600       1.10943300       0.56106200 
Al      6.08526000      10.09710000      10.02511000       13      -0.16936100      -0.31831700      -0.05763400 
Al     10.07469000       9.94063000       9.77707000       13       0.12791600       1.05101700       0.36486900 
Al     14.01452000       9.92380000      10.16137000       13       0.35604900       0.65500400      -0.34142300 
Al      0.05218000      11.14800000      11.46815000       13      -0.74512800       1.27915000      -1.38740300 
Al      3.97787000      11.30813000      11.52140000       13       0.27998400       0.06492500      -0.53515700 
Al      8.22188000       0.13743000      11.30126000       13       0.04828400      -0.37532000      -0.12403800 
Al     12.06436000       0.04507000      11.57562000       13       0.50100100      -0.19206100      -0.85387600 
Al     16.06694000       2.82424000      11.26118000       13       0.27322400       0.28028900      -0.07648800 
Al      3.85474000       2.97788000      11.62958000       13       1.93534500      -0.87207000      -0.98705500 
Al      8.06069000       3.00078000      11.48036000       13      -0.77238100      -2.14333000       0.56435000 
Al     12.00799000       2.91084000      11.65442000       13       0.51173000       0.09225400      -0.33900500 
Al     16.13162000       5.94529000      11.03135000       13      -0.25971700      -1.24051400       0.28727600 
Al      4.16042000       5.72254000      11.37758000       13      -0.31652900       0.01805100      -0.08695500 
Al      8.08665000       5.41026000      11.39468000       13      -0.79659500       2.32125300      -0.14723000 
Al     12.16154000       5.92982000      11.34808000       13      -0.84894000      -1.21836700      -0.27425900 
Al     16.02231000       8.48593000      11.56495000       13       0.82578700      -0.46321000      -1.41242300 
Al      4.08396000       8.48223000      11.50457000       13      -0.26668000       0.13484800      -0.30959400 
Al      8.08656000       8.70521000      11.32243000       13      -0.01104900      -0.52793400      -0.18752200 
Al     12.05936000       8.50335000      11.20617000       13      -0.09630700       0.77586200       0.77002400 
Al      2.06308000       1.47120000      12.85503000       13      -0.11794800      -0.18516100      -0.20284300 
Al      6.01667000       1.21499000      12.78786000       13       0.10994600       0.67111100       0.11177400 
Al     10.03643000       1.31086000      12.83379000       13       0.31201400       0.64269500       0.17368500 
Al     14.18645000       1.70547000      12.88078000       13      -0.13508400      -0.59493300       0.04468800 
Al      2.05741000       4.26837000      12.56765000       13      -1.23367500       1.00414800       0.73348700 
Al      6.05123000       4.29122000      13.22456000       13       0.15290900      -0.11277900      -0.31620200 
Al     10.06544000       4.32484000      12.84815000       13       0.36845400      -0.16534800       1.09568500 
Al     13.94761000       4.44774000      12.96443000       13       0.38197400      -1.40785800      -0.66088900 
Al      2.13583000       6.99982000      13.06106000       13      -0.43035900       0.50308800      -1.57985500 
Al      5.84453000       7.21911000      13.17813000       13       0.79541700      -1.31836100      -3.73606800 
Al      9.93611000       7.04790000      12.87241000       13       0.81655600       0.10796100      -0.71725200 
Al     14.05032000       6.90057000      12.86237000       13       0.24428000       1.65831300      -0.29327300 
Al      1.86397000      10.05879000      12.71578000       13       1.31218100      -0.98329500       0.61115600 
Al      6.28581000       9.87150000      12.81040000       13      -0.91188400       0.58322700      -0.08607900 
Al     10.21259000       9.80377000      12.88990000       13      -0.39460400       0.46101100      -1.33923600 
Al     14.31787000       9.75235000      12.88146000       13      -1.61862000       0.81012600       0.78440800 
Al      0.03791000       0.11898000      14.09760000       13      -0.64732200      -0.09368200       0.78871600 
Al      3.83646000       0.07400000      14.32162000       13       1.14462400      -1.02605200      -0.50957300 
Al      8.10895000       0.04959000      14.17702000       13      -0.08604100      -0.64893100       0.30513700 
Al     12.14224000       0.04740000      14.17105000       13       1.05332400       0.38770800       0.34717500 
Al      0.28001000       2.92269000      14.09800000       13      -1.08800300      -0.32924100      -0.07309500 
Al      4.13177000       2.70832000      14.39768000       13      -0.20631000       0.65642100      -0.30256000 
Al      8.24393000       2.73227000      14.42561000       13      -0.34054000       0.62401500      -0.89903600 
Al     12.16972000       2.97519000      14.56359000       13      -0.46618300      -0.32103000      -1.50306000 
Al     16.10919000       5.59853000      14.14553000       13       0.37271800       0.10685200      -0.04702000 
Al      3.91352000       5.69295000      14.33122000       13       0.54051900      -0.89775800       0.46821600 
Al      8.11385000       5.83137000      14.27946000       13      -0.68205300      -0.79390600       0.31050600 
Al     12.32532000       5.66703000      14.68939000       13      -0.63885100       0.27498300      -1.39802700 
Al      0.09636000       8.42911000      14.12158000       13       0.01157600       0.25822400       0.84117700 
Al      4.10437000       8.52761000      14.38834000       13      -1.92232500       1.37109200      -0.30807200 
Al      8.14087000       8.54863000      14.15055000       13       0.42575100       0.40063700       0.61804500 
Al     11.88099000       8.49066000      14.41005000       13       2.08593500      -1.09090500      -1.06709200 
Al      2.05130000       1.23780000      15.73443000       13      -0.33924700       0.94175900       0.38504400 
Al      6.11014000       1.29679000      15.73118000       13       0.07992100       0.40629400       0.20716000 
Al     10.09487000       1.25488000      15.76102000       13      -0.26821300       0.09596500       0.13309400 
Al     14.20632000       1.58976000      15.86758000       13       0.88759000      -1.00802100      -0.81619200 
Al      1.80726000       4.14287000      15.78249000       13       3.23903200       2.58103200      -1.95464600 
Al      6.12944000       4.35995000      16.28603000       13      -0.53371500       0.62502500      -3.74713900 
Al     10.17335000       4.45153000      15.85354000       13      -0.13697800      -1.94301300      -0.60996600 
Al     14.22445000       4.23074000      15.82052000       13       0.31827300       0.25261900       0.40610400 
Al      1.90285000       7.09811000      15.63532000       13       0.18293500      -0.07123200       1.13593600 
Al      6.06649000       7.48242000      15.42210000       13       0.97708100      -1.49627400       4.01286600 
Al     10.19202000       6.89441000      15.63552000       13      -0.71566000       1.55822300       0.72625400 
Al     14.29077000       7.14474000      15.55026000       13      -0.03830800       0.16857600       1.06751900 
Al      1.91059000      10.08997000      15.59788000       13      -0.06397300      -1.12130200       0.41015500 
Al      6.08642000       9.99151000      15.60480000       13       0.35445200       0.67264500       0.47455300 
Al     10.40853000      10.08074000      15.40449000       13      -2.08969100       0.27797800       2.12205400 
Al     14.15188000       9.88790000      15.83797000       13      -0.14786600       0.14422300      -0.62720300 
Al     16.02646000      11.39882000      17.20974000       13       0.55818600       0.09371900      -0.26961600 
Al      4.16355000      11.23425000      17.08430000       13      -0.46816200       0.49073000       0.41109400 
Al      7.99791000      11.31696000      17.39755000       13       0.75790000       0.34756700      -1.88447000 
Al     12.16464000      11.22641000      17.27412000       13      -0.58199300       0.18478900      -1.54968100 
Al      0.31783000       3.00721000      16.90802000       13      -3.19828600      -3.11384200       2.25519000 
Al      3.95926000       3.04353000      17.03033000       13       0.05065600      -1.13392300       0.77777000 
Al      8.13774000       2.97103000      16.99574000       13       0.50798700      -1.61779600       1.12580500 
Al     12.10060000       2.36623000      16.97794000       13      -0.51485500       1.47568800       1.72638600 
Al     16.10275000       5.51924000      17.37753000       13      -0.05368800       1.25584400      -0.82907100 
Al      3.82068000       5.63724000      17.15695000       13       0.27171800       0.80654000      -0.00687700 
Al      8.28474000       5.49061000      17.31047000       13      -0.40977900       1.51857500      -0.09594100 
Al     12.10918000       5.55840000      17.20195000       13       0.78662800       0.42014400       1.09351800 
Al      0.02700000       8.46926000      17.14269000       13      -0.10079100      -0.00485000       0.29686900 
Al      3.97953000       8.57642000      17.23325000       13       0.07120400      -0.13724800      -0.44005000 
Al      8.31247000       8.37605000      17.45171000       13      -1.24664500       0.33295500      -3.06169000 
Al     11.81189000       8.54157000      17.22432000       13       1.29012400      -0.45838000      -0.92171600 
Al      2.06163000       1.33054000      18.52699000       13       0.00295200       0.06322800       0.35070100 
Al      5.97764000       1.33893000      18.68588000       13      -0.02493400       0.42623900      -0.11452600 
Al     10.14134000       1.32345000      18.69584000       13      -0.19299200      -0.04097700      -0.15303500 
Al     14.17119000       1.55178000      18.65107000       13      -0.17691000      -0.39120300       0.02627000 
Al      1.89445000       4.19218000      18.67152000       13       0.73542800       0.06818500       0.78044000 
Al      6.14362000       4.27841000      18.57933000       13      -0.00081400       0.09719900       2.66545200 
Al     10.27831000       4.19319000      18.64186000       13      -1.05244100      -0.06208900      -0.03813600 
Al     14.09200000       4.24757000      18.72511000       13       0.01640900       0.17448500       0.01201300 
Al      2.14134000       7.25626000      18.75833000       13      -0.67590900      -0.98677400      -0.34406200 
Al      6.05622000       7.23984000      18.51384000       13       0.00752500      -0.29870200       0.01561500 
Al     10.13898000       7.11082000      18.57370000       13       0.44182900      -1.49414700       0.03217600 
Al     14.21445000       7.01333000      18.87925000       13      -0.60937900       0.85111900      -0.61292400 
Al      1.86812000       9.80661000      18.73631000       13       0.39193900       1.48829200      -0.82241300 
Al      6.17258000      10.08153000      18.65392000       13      -0.92097100      -1.11512500       0.36757600 
Al     10.08300000       9.85735000      18.57337000       13       0.30215100       1.15698800       0.23537800 
Al     14.02435000      10.13531000      18.54016000       13       1.31221200      -1.48173900       0.52285400 
Al     16.01793000      11.36433000      20.04602000       13       0.17994200       0.37605800      -0.11356400 
Al      3.94931000      11.29044000      20.02313000       13       0.04714300       0.67340500      -0.24600900 
Al      8.10526000      11.34042000      19.91664000       13       0.24089000       0.02405000       1.19001300 
Al     12.14402000      11.19341000      19.77451000       13      -0.55333900       0.57386500       1.61625500 
Al     16.03823000       2.82306000      20.03497000       13       0.55114600       0.11937600      -0.07661700 
Al      4.25536000       2.98141000      19.96211000       13      -0.67797500      -0.15761300       0.00186300 
Al      8.07344000       2.70163000      19.98519000       13       0.24260900       0.38364800       0.05344800 
Al     12.06420000       2.90126000      19.86307000       13       0.23031600      -0.71171800       0.80503800 
Al      0.07394000       5.93542000      19.97169000       13       0.56671100      -0.72818700       0.77976200 
Al      4.09411000       5.81672000      19.92530000       13       0.12837200      -0.27082900       0.07808700 
Al      8.10494000       5.70934000      20.00485000       13       0.26158000      -0.32677900       0.40995800 
Al     11.99312000       5.70919000      20.06412000       13       0.10700900      -0.76441800       0.37600400 
Al      0.21627000       8.70600000      20.31604000       13      -0.76683800      -0.58987800      -0.04342600 
Al      3.92413000       8.69078000      20.01605000       13       0.79149600      -0.38485500       0.31213700 
Al      8.39742000       8.43695000      19.86584000       13      -1.14117900       0.29113100       2.23602800 
Al     12.02017000       8.24106000      19.90938000       13       0.43538100       1.35909700       0.42811700 
Al     10.08313000       4.27703000      22.11107000       13       0.01678400       0.00454200      -1.21231800 
129
Lattice="16.14224916 0.0 0.0 0.0 11.414293845 0.0 0.0 0.0 29.987507114" Properties=species:S:1:pos:R:3:Z:I:1:force:R:3 energy=-442.81894829 pbc="T T T"
Al      2.09344000       1.41043000      10.09262000       13      -0.15523800      -0.78895700      -0.10317600 