128
Lattice="12.8121 0.0 0.0 0.0 12.8121 0.0 0.0 0.0 12.8121" Properties=species:S:1:pos:R:3:Z:I:1:force:R:3 energy=-455.99311831 pbc="T T T"
Al      1.45821000       1.24533000       1.50311000       13       0.25770000       1.35167700      -1.66387400 
Al      3.56749000       9.64897000       6.10373000       13      -0.56168900      -0.34285500       0.42964300 
Al      6.35421000       9.64077000       6.39794000       13      -0.45483800       0.23078500      -1.05817400 
Al      9.66070000      12.77550000       9.69942000       13      -0.77826500       0.21331900      -1.16674600 
Al      9.32231000       6.42284000       9.60784000       13      -0.08094600       0.09419600       0.39471600 
Al      6.71983000      12.49613000       9.58211000       13      -0.53473500       0.21013100      -0.12058300 
Al     11.24530000       4.87985000      11.15410000       13      -0.84604500       0.06197600       0.10880700 
Al      9.72863000       2.93754000       9.67416000       13      -0.22424100       1.11483500       0.83215200 
Al     11.31320000       5.02004000       8.21408000       13      -0.50578300      -0.41849200      -0.43309400 
Al     11.43450000       1.34667000      10.91870000       13       0.71766700       0.62167900      -0.13184100 
Al     11.47190000       1.90782000       8.13758000       13      -0.25668500      -0.00289000      -0.17175200 
Al      8.10734000       4.55876000      11.45320000       13      -0.11688900      -0.35726200      -0.18857900 
Al      7.99851000       4.92475000       7.95843000       13      -0.59972100      -0.49878100       0.91936000 
Al      7.84163000       1.38333000      11.33190000       13       1.34144000       0.30080000      -0.70004300 
Al     12.40360000       9.32170000       6.44016000       13       1.35771100      -0.15258400       0.30580500 
Al      7.90858000       1.91619000       8.27591000       13       0.21541600      -1.01512200      -1.03795600 
Al      9.00908000       0.31728000       6.39408000       13       1.52497700       0.62853700       0.69397700 
Al      6.63663000       6.52903000       6.28966000       13      -0.94650500      -0.37856700       0.05881600 
Al      6.47940000       6.46300000       9.96018000       13       0.74890800       0.91938000       0.31062800 
Al      3.52511000       6.83760000       9.88042000       13      -0.56013700      -0.58302600      -0.23619200 
Al      0.08550000       6.70009000       9.84626000       13      -0.78947600      -1.17652600      -1.09422400 
Al      0.15257000       3.60411000       9.59742000       13       0.54236300      -0.77248500       0.60066800 
Al      3.36485000      12.32810000       9.38914000       13      -1.70201700       0.74899700      -0.02828900 
Al      4.83338000       4.93653000      11.39740000       13      -0.03509900      -0.36059800       0.12297600 
Al      3.37595000       3.55496000       9.52411000       13      -0.32583700       0.24236900      -0.23204800 
Al      5.26542000       5.07258000       8.30040000       13      -1.02685100       0.29603300      -0.73155600 
Al      4.69682000       1.04457000      10.92480000       13      -0.04021700       1.14042000      -0.21143500 
Al      4.57690000       1.75135000       7.99354000       13       0.33031700      -1.32338800       0.67399200 
Al      1.75474000       5.05899000      11.33020000       13      -0.04010000       0.29726000      -0.15327300 
Al      6.28377000       3.04923000       9.69899000       13      -0.63341500       0.63707700       1.14790900 
Al      1.54715000       5.17465000       8.05290000       13       1.07172700      -0.25547200       0.18997400 
Al      3.15612000       9.79764000       0.32132000       13      -0.76356200      -0.61591700      -0.67793600 
Al      1.46246000       8.01668000      11.28150000       13       1.04869600       1.08273300       1.14594000 
Al     11.04420000      11.26220000       7.65265000       13      -0.21894600       0.53124500       0.62822400 
Al     10.89860000       8.01419000      11.14100000       13      -0.04587300      -0.49422600       0.22993500 
Al     10.99580000       7.54110000       7.74945000       13      -0.25662200       0.43902400       0.55838600 
Al      8.19978000      11.29410000      11.52100000       13      -0.48375600       0.84452000       0.11180500 
Al      8.15197000      11.14890000       7.85343000       13       0.12635400      -0.30488100      -0.22759200 
Al      8.05128000       8.21866000      11.38300000       13       0.09732900      -0.23980000       0.08431400 
Al      7.88196000       8.40706000       7.93955000       13       1.02859100      -1.20504200       0.45716600 
Al      6.54254000       9.87255000       0.11811000       13       0.08353300      -0.14242900       0.95168500 
Al      0.27750000      12.41720000       9.27321000       13      -0.67082500       0.31894200       0.40003900 
Al      6.22952000       0.20270000       0.01891000       13      -0.15547300      -1.48899500       1.24952100 
Al      9.66877000       9.74454000       0.14655000       13       0.44448600      -0.66773100       0.43831400 
Al      9.78472000       9.44336000       6.19741000       13      -0.64904300       0.19738800       0.18863100 
Al      9.96912000       0.10810000       0.13550000       13      -0.30848800       0.33482900      -0.62864100 
Al      1.81662000       7.90672000       7.81396000       13       0.02996200       1.02406400       0.56345900 
Al      0.17830000       6.43573000       6.31367000       13      -0.55939600      -0.02404600      -0.66887400 
Al     12.74600000       6.21059000       0.11670000       13      -0.11456400      -0.01779200       0.12159300 
Al      9.28290000       6.33481000       6.20269000       13       0.33819100      -0.56400500      -0.49329600 
Al      9.42757000       6.41095000       0.06614000       13       0.37518600      -0.39282200      -0.27344400 
Al     12.42790000       9.23600000       9.27833000       13       0.35141200       1.01925600      -0.08990500 
Al      6.56914000       9.66259000       9.75601000       13      -0.68200500       0.53394300       0.10985900 
Al     12.34240000       9.48921000      12.80799000       13       0.29954600       0.04104300       0.17044400 
Al      4.78908000      11.24790000      11.39020000       13       0.56529000      -0.57364200       0.08181200 
Al      3.47242000       9.75648000       9.65761000       13      -0.52370300      -1.04954100      -0.43225800 
Al      4.90095000      11.22820000       7.84946000       13      -0.08068200      -0.97989700       0.01131600 
Al      4.80816000       8.34037000      11.56060000       13       0.24438200       0.31948500       0.02575300 
Al      4.82508000       7.94682000       7.88632000       13       0.59319600       0.40229700       0.46012200 
Al      1.30466000      10.70970000      11.16890000       13       0.05399100       0.08200300      -0.38045000 
Al      1.53635000      11.08840000       7.54844000       13       0.38653700      -1.11201600       0.22712700 
Al     12.68853000       0.36460000       6.62327000       13       0.74636900      -0.41568000      -1.05767300 
Al      1.71836000       1.40884000      10.57400000       13      -0.43056300       0.04592800       0.11012500 
Al      1.82509000       1.94797000       7.89853000       13      -0.41396000      -0.12487500       0.00361900 
Al     11.48630000      11.24150000       4.91362000       13      -0.03462700       0.83051600       0.07286400 
Al     11.21440000       1.80677000       4.74542000       13       0.83844400       0.76315400       1.07005200 
Al     11.42700000       1.78077000       1.84025000       13       0.36314500      -0.86499100       0.67717800 
Al      7.60803000       4.33389000       4.51461000       13       0.16708400       0.21748400       0.28282200 
Al      8.13823000       4.52583000       1.45483000       13      -0.55439500      -0.33413700      -0.14450600 
Al      7.59524000       1.50919000       4.68589000       13      -0.63702200       0.45715100      -0.45730600 
Al      8.14009000       1.22583000       1.61979000       13      -0.25583300       0.13605500       0.24558400 
Al      6.33249000      12.41801000       3.14291000       13       1.80573100       1.65411200      -1.37154900 
Al      6.07999000       2.75456000       2.53742000       13       0.63103600      -0.89453400       1.25580900 
Al      6.22111000       2.80323000      12.70810000       13      -0.47053200       0.96751000      -0.11168300 
Al      6.18059000       0.08923000       6.60975000       13       1.10740200       0.65455900      -0.39947900 
Al      0.06520000       3.53950000       6.29124000       13      -0.48333000      -0.06783800       0.77200000 
Al      6.23368000       3.31741000       6.56703000       13       1.06610600      -1.05554500       0.44238500 
Al      2.82304000      12.57160000      12.53310000       13      -0.66280200      -0.40971200       0.00922700 
Al     11.13880000       4.52110000       2.04667000       13       0.15267900       0.34409600      -1.13704600 
Al     12.66220000       3.14790000      12.76390000       13       0.77021700       0.22614200      -0.41215900 
Al      3.10300000       3.00830000      12.06650000       13       0.11371200      -0.34907500       1.36206700 
Al      3.62160000       3.47816000       6.45193000       13      -1.26313700       0.17218100       1.43738300 
Al      6.57599000       6.27143000       3.09150000       13      -0.21002000       0.21252500      -0.20180500 
Al      2.96937000       0.05320000       3.24108000       13       0.00089000      -0.52431700       0.46421900 
Al      0.43780000       3.34903000       3.23406000       13      -1.10190900      -1.01414100       0.82720400 
Al      4.97177000       4.65830000       4.94306000       13       0.44263000       1.67192400      -2.56531700 
Al      3.34892000       3.09441000       3.13274000       13       0.15477200       0.34311500      -0.19247800 
Al      4.92534000       4.70626000       1.61359000       13      -0.80751800       0.98355500      -0.82121400 
Al      4.73661000       1.44357000       4.78925000       13       0.51145900       0.46252600      -0.23728900 
Al      4.08532000       1.43065000       1.23713000       13       0.73718900       0.03042900      -0.18085500 
Al      1.94010000       4.90143000       4.93434000       13      -0.64589400      -0.85260100       0.42832500 
Al      1.68945000       4.65420000       1.69791000       13       0.93235200       0.85758200      -1.88078300 
Al      1.88459000       2.21871000       5.02928000       13      -0.27855700      -1.36471000       0.26254100 
Al      2.96698000       0.06800000       6.16179000       13       0.21497400      -0.20864200       0.61626900 
Al      9.35094000       2.94162000       3.27535000       13       0.29063900      -0.09400700      -0.10779000 
Al     11.25640000       4.77059000       4.65619000       13      -0.74015000       0.06875200       0.50703600 
Al      9.89315000       2.76037000       0.07290000       13      -0.53322800       0.81945100      -0.81587000 
Al      9.84542000       9.63109000       3.28872000       13       0.09819700      -0.07538000       0.12902900 
Al     11.37520000      11.51610000       1.68206000       13       0.20406900      -0.39769500       0.95941300 
Al     11.12720000       7.75571000       4.75396000       13      -0.00128700      -0.77319300      -0.35734900 
Al     11.13680000       7.67245000       1.63225000       13       0.14568200       0.46791200       0.34482300 
Al      8.11914000      11.22280000       4.96107000       13      -0.49489700      -0.50774200      -0.58761100 
Al      8.57036000      11.34300000       1.84377000       13      -1.12353100       0.27683400       0.03588900 
Al      7.93175000       8.11568000       4.79966000       13       0.25501300       0.44871700      -1.03387400 
Al      8.14328000       8.04105000       1.73659000       13      -0.48742100       0.74170100      -0.25463300 
Al      6.37416000       9.65622000       3.19313000       13       1.19356100       0.92113700      -0.14758900 
Al     12.61798000       9.50443000       3.25767000       13      -1.25533100      -0.44056500       0.36580500 
Al      0.32315000       0.33477000       3.37370000       13      -1.06097400      -0.83512800       1.81687400 
Al     12.76470000      12.67450000      12.51988000       13       1.11174000       0.27448600       0.52769800 
Al      9.86115000       0.04754000       3.66071000       13      -0.65925700      -0.10991500      -0.64798300 
Al      9.46128000       6.28228000       3.10749000       13      -0.41102000      -0.46250300       0.82299300 
Al      3.40078000       6.54289000       6.24880000       13       0.33388900      -0.20528800      -0.10624900 
Al      3.25490000       6.59867000       0.25390000       13      -0.13182300      -0.01331100       0.20651300 
Al      4.84404000      11.42720000       4.61918000       13      -1.08633600      -0.66366200       1.52184400 
Al      3.09448000       9.77867000       3.37809000       13       0.43745500       0.03499900      -0.82319400 
Al      4.66538000      11.24130000       1.65567000       13       0.00290200       0.60766600      -0.11202100 
Al      4.92108000       7.96980000       4.48129000       13       0.07008600      -0.45735700       0.68354900 
Al      4.78010000       8.22164000       1.86020000       13      -0.19690900      -0.65968200      -0.83314800 
Al      1.45186000      11.04540000       4.93614000       13      -0.68387600       0.33847600      -0.23158000 
Al      1.16453000      10.84660000       1.76111000       13       0.81662500       1.53485200      -0.85136200 
Al      1.51800000       8.25273000       4.68507000       13       0.30712100      -0.79786300       0.94980700 
Al      1.29805000       8.14691000       1.55299000       13       0.51160200      -0.53575500       0.02408900 
Al      0.16396000       6.34132000       3.34224000       13       0.12208700      -0.09748400      -0.43166100 
Al      3.07243000       6.31758000       3.35035000       13       0.99754700       1.01639600      -1.29107400 
Al      9.51527000       3.43407000       6.51339000       13       0.47706100      -0.60294600      -0.45941000 
Al      6.31852000       6.56253000       0.00591000       13       0.62143600      -0.06402500       0.77570100 
Al      9.57207000       9.91224000       9.81340000       13      -0.31554000      -0.91743300      -1.40391400 
Al     11.08730000      11.26850000      11.20210000       13       1.07629800      -0.15960200      -0.11609100 
