32
Lattice="8.07112458 0.0 0.0 1.5e-07 8.07112458 0.0 1.5e-07 1.5e-07 8.07112458" Properties=species:S:1:pos:R:3:Z:I:1:force:R:3 energy=-119.85342828 pbc="T T T"
Al      0.00000000       0.00000000       0.00000000       13       0.00030600      -0.00005600      -0.00012000 
Al      2.01778000       2.01778000       0.00000000       13      -0.00017700       0.00057000      -0.00023000 
Al      2.01778000       0.00000000       2.01778000       13      -0.00045200       0.00023100      -0.00029500 
Al      0.00000000       2.01778000       2.01778000       13      -0.00004600       0.00053200      -0.00020400 
Al      0.00000000       0.00000000       4.03556000       13      -0.00008900       0.00060400       0.00026900 
Al      2.01778000       2.01778000       4.03556000       13      -0.00041100      -0.00079400      -0.00012500 
Al      2.01778000       0.00000000       6.05334000       13       0.00067300       0.00030200      -0.00025300 
Al      0.00000000       2.01778000       6.05334000       13       0.00045100      -0.00034300      -0.00092000 
Al      0.00000000       4.03556000       0.00000000       13       0.00006700      -0.00027800       0.00036800 
Al      2.01778000       6.05334000       0.00000000       13       0.00055600       0.00010800       0.00010300 
Al      2.01778000       4.03556000       2.01778000       13       0.00022000      -0.00035800      -0.00014200 
Al      0.00000000       6.05334000       2.01778000       13      -0.00040000      -0.00024500       0.00070900 
Al      0.00000000       4.03556000       4.03556000       13      -0.00044900      -0.00034900      -0.00054200 
Al      2.01778000       6.05334000       4.03556000       13       0.00020100       0.00010100       0.00034300 
Al      2.01778000       4.03556000       6.05334000       13      -0.00025400      -0.00013500       0.00060500 
Al      0.00000000       6.05334000       6.05334000       13      -0.00019900       0.00011000       0.00043500 
Al      4.03556000       0.00000000       0.00000000       13      -0.00044900      -0.00034900      -0.00054200 
Al      6.05334000       2.01778000       0.00000000       13       0.00020100       0.00010100       0.00034300 
Al      6.05334000       0.00000000       2.01778000       13      -0.00025400      -0.00013500       0.00060500 
Al      4.03556000       2.01778000       2.01778000       13      -0.00019900       0.00011000       0.00043500 
Al      4.03556000       0.00000000       4.03556000       13       0.00006700      -0.00027800       0.00036800 
Al      6.05334000       2.01778000       4.03556000       13       0.00055600       0.00010800       0.00010300 
Al      6.05334000       0.00000000       6.05334000       13       0.00022000      -0.00035800      -0.00014200 
Al      4.03556000       2.01778000       6.05334000       13      -0.00040000      -0.00024500       0.00070900 
Al      4.03556000       4.03556000       0.00000000       13      -0.00008900       0.00060400       0.00026900 
Al      6.05334000       6.05334000       0.00000000       13      -0.00041100      -0.00079400      -0.00012500 
Al      6.05334000       4.03556000       2.01778000       13       0.00067300       0.00030200      -0.00025300 
Al      4.03556000       6.05334000       2.01778000       13       0.00045100      -0.00034400      -0.00092000 
Al      4.03556000       4.03556000       4.03556000       13       0.00030500      -0.00005600      -0.00012000 
Al      6.05334000       6.05334000       4.03556000       13      -0.00017600       0.00057000      -0.00023000 
Al      6.05334000       4.03556000       6.05334000       13      -0.00045200       0.00023100      -0.00029500 
Al      4.03556000       6.05334000       6.05334000       13      -0.00004600       0.00053200      -0.00020400 
32
Lattice="8.07112458 0.0 0.0 1.5e-07 8.07112458 0.0 1.5e-07 1.5e-07 8.07112458" Properties=species:S:1:pos:R:3:Z:I:1:force:R:3 energy=-119.84989606 pbc="T T T"
Al      0.00072000       0.00422000       8.06798000       13      -0.00620600      -0.01428000       0.02777200 
Al      2.02430000       2.01441000       0.00013000       13      -0.01943700       0.01407700       0.00941000 
Al      2.01209000       0.00750000       2.02140000       13       0.01760000      -0.01584200      -0.02536500 
Al      8.07065000       2.02198000       2.02051000       13       0.00089900      -0.01023700      -0.00958700 
Al      0.00249000       8.06816000       4.03395000       13      -0.02538600       0.02726200      -0.00181300 
Al      2.02310000       2.02312000       4.03297000       13      -0.01424300      -0.01446700       0.00757200 
Al      2.02034000       0.00267000       6.05396000       13      -0.01366200      -0.01737800       0.00508100 
Al      8.06488000       2.01389000       6.05608000       13       0.02671300       0.01859000      -0.00768300 
Al      8.06645000       4.03429000       8.07029000       13       0.01446200      -0.00655500       0.00395300 
Al      2.01404000       6.04070000       0.00082000       13       0.00539100       0.04242300      -0.00820600 
Al      2.01692000       4.03297000       2.02070000       13       0.01312400      -0.00834400      -0.00965500 
Al      0.00610000       6.05697000       2.01721000       13      -0.02562100      -0.00584300      -0.00451700 
Al      0.00356000       4.03140000       4.03189000       13      -0.01222800       0.02376300       0.01982900 
Al      2.02168000       6.05150000       4.03534000       13      -0.00519200      -0.00704600       0.00830400 
Al      2.02294000       4.03257000       6.05208000       13      -0.03839300       0.01429200       0.00267800 
Al      8.06726000       6.06290000       6.05916000       13       0.02659000      -0.02473300      -0.01522100 
Al      4.03647000       8.06786000       8.05941000       13      -0.01745000      -0.00227700       0.01894300 
Al      6.05309000       2.00981000       0.00595000       13      -0.00809200       0.01290500      -0.01344300 
Al      6.04615000       8.06737000       2.01925000       13       0.03519500       0.00031300       0.00092600 
Al      4.04229000       2.00986000       2.02314000       13      -0.02009900       0.03687300      -0.01429300 
Al      4.02914000       8.06864000       4.03700000       13       0.01695600       0.01481200       0.00250600 
Al      6.05026000       2.02237000       4.03540000       13       0.01366500      -0.03572400       0.00352100 
Al      6.05377000       8.06579000       6.05289000       13      -0.01728600       0.02960600      -0.01087800 
Al      4.03175000       2.02332000       6.04881000       13       0.02769100      -0.01216600       0.01084500 
Al      4.02602000       4.04200000       8.06754000       13       0.03240500      -0.02755100       0.01836600 
Al      6.05582000       6.05763000       8.06429000       13       0.00384300      -0.01709900       0.02523800 
Al      6.05623000       4.03756000       2.02011000       13      -0.01596100       0.00692700      -0.01514700 
Al      4.03762000       6.05545000       2.01695000       13      -0.01487700      -0.00503700      -0.00375200 
Al      4.03744000       4.03665000       4.03811000       13      -0.00557700       0.00165800      -0.02854100 
Al      6.05143000       6.05521000       4.03783000       13       0.01926900      -0.01639100      -0.00870700 
Al      6.05454000       4.03440000       6.05586000       13      -0.00623100       0.00773900      -0.00181800 
Al      4.03845000       6.05595000       6.05213000       13      -0.01483200      -0.00774600       0.00194400 
32
Lattice="8.07112458 0.0 0.0 1.5e-07 8.07112458 0.0 1.5e-07 1.5e-07 8.07112458" Properties=species:S:1:pos:R:3:Z:I:1:force:R:3 energy=-119.83658441 pbc="T T T"
Al      0.00144000       0.00844000       8.06484000       13       0.00366300      -0.01507500       0.05281400 
Al      2.03082000       2.01104000       0.00025000       13      -0.03856400       0.03146800       0.01819000 
Al      2.00640000       0.01500000       2.02501000       13       0.05320300      -0.05246300      -0.06532000 
Al      8.07017000       2.02617000       2.02324000       13      -0.00598100      -0.02328100      -0.01808200 
Al      0.00498000       8.06519000       4.03234000       13      -0.03380000       0.04269100       0.00247800 
Al      2.02841000       2.02847000       4.03037000       13      -0.04490700      -0.04115700       0.03028800 
Al      2.02290000       0.00535000       6.05457000       13      -0.02741000      -0.02499500      -0.00389700 
Al      8.05863000       2.01000000       6.05882000       13       0.05902100       0.03569000      -0.03145600 
Al      8.06177000       4.03302000       8.06945000       13       0.01892700      -0.01322800       0.00395400 
Al      2.01030000       6.02805000       0.00163000       13       0.01180500       0.10221400      -0.00839500 
Al      2.01607000       4.03037000       2.02362000       13       0.02979500      -0.00995500      -0.01811100 
Al      0.01220000       6.06060000       2.01663000       13      -0.05270300      -0.01738400      -0.00502100 
Al      0.00712000       4.02725000       4.02822000       13      -0.02219400       0.05205400       0.05586900 
Al      2.02557000       6.04966000       4.03512000       13      -0.01742700      -0.00838800       0.01963000 
Al      2.02810000       4.02957000       6.05081000       13      -0.08015600       0.02929500      -0.00347100 
Al      8.06339000       6.07246000       6.06497000       13       0.06636600      -0.08485800      -0.06015100 
Al      4.03738000       8.06459000       8.04769000       13      -0.03562900       0.00618700       0.07167300 
Al      6.05284000       2.00184000       0.01190000       13      -0.03046400       0.05705400      -0.03690100 
Al      6.03896000       8.06361000       2.02072000       13       0.07597100       0.00764000       0.00070600 
Al      4.04901000       2.00195000       2.02851000       13      -0.04762700       0.07858700      -0.05417100 
Al      4.02272000       8.06615000       4.03843000       13       0.04274000       0.02765300       0.00203100 
Al      6.04717000       2.02695000       4.03525000       13       0.02995300      -0.05632700       0.01375100 
Al      6.05420000       8.06047000       6.05243000       13      -0.02636000       0.06667600      -0.03619200 
Al      4.02795000       2.02885000       6.04428000       13       0.06459400      -0.04043700       0.03641200 
Al      4.01648000       4.04844000       8.06395000       13       0.10141700      -0.06831400       0.05323800 
Al      6.05829000       6.06192000       8.05745000       13      -0.01120200      -0.04517200       0.07588500 
Al      6.05911000       4.03956000       2.02243000       13      -0.02912600       0.01722800      -0.03580400 
Al      4.03968000       6.05755000       2.01612000       13      -0.02799600      -0.00894100      -0.01254800 
Al      4.03932000       4.03774000       4.04066000       13      -0.00043000       0.01537900      -0.04413300 
Al      6.04952000       6.05708000       4.04009000       13       0.03801000      -0.03146800      -0.01682900 
Al      6.05574000       4.03323000       6.05838000       13      -0.00583000       0.00886800       0.00066400 
Al      4.04134000       6.05856000       6.05091000       13      -0.02623700      -0.02234100      -0.00283800 
32
Lattice="8.07112458 0.0 0.0 1.5e-07 8.07112458 0.0 1.5e-07 1.5e-07 8.07112458" Properties=species:S:1:pos:R:3:Z:I:1:force:R:3 energy=-119.81338961 pbc="T T T"
Al      0.00216000       0.01266000       8.06170000       13       0.01388700      -0.03399100       0.09327700 
Al      2.03734000       2.00767000       0.00038000       13      -0.06502200       0.04879300       0.02761000 
Al      2.00072000       0.02250000       2.02862000       13       0.08030600      -0.08866600      -0.09278300 
Al      8.06970000       2.03036000       2.02596000       13      -0.00965700      -0.05365400      -0.03641900 
Al      0.00746000       8.06223000       4.03073000       13      -0.04444000       0.06119000       0.01441000 
Al      2.03373000       2.03380000       4.02777000       13      -0.07312600      -0.06580900       0.04960000 
Al      2.02546000       0.00802000       6.05519000       13      -0.04070500      -0.03245400      -0.00913000 
Al      8.05239000       2.00611000       6.06156000       13       0.08416800       0.05313200      -0.05083900 
Al      8.05710000       4.03175000       8.06861000       13       0.04442700      -0.01873000       0.00372800 
Al      2.00656000       6.01542000       0.00245000       13       0.01603500       0.17662900      -0.01216800 
Al      2.01521000       4.02778000       2.02654000       13       0.04723200      -0.01211300      -0.02925100 
Al      0.01829000       6.06422000       2.01606000       13      -0.08597500      -0.03071900      -0.00875500 
Al      0.01067000       4.02309000       4.02456000       13      -0.04161300       0.09366700       0.10264800 
Al      2.02946000       6.04782000       4.03491000       13      -0.03494800      -0.00569000       0.02965600 
Al      2.03325000       4.02658000       6.04955000       13      -0.14325500       0.05282900      -0.00477900 
Al      8.05953000       6.08202000       6.07078000       13       0.10976700      -0.14131900      -0.10332200 
Al      4.03828000       8.06132000       8.03599000       13      -0.05590800       0.01132600       0.12825900 
Al      6.05259000       1.99387000       0.01784000       13      -0.05224600       0.08635500      -0.05351900 
Al      6.03178000       8.05986000       2.02219000       13       0.11203500       0.00667200       0.00582000 
Al      4.05573000       1.99404000       2.03387000       13      -0.07852400       0.12437000      -0.09308200 
Al      4.01630000       8.06367000       4.03986000       13       0.06601800       0.03862300       0.00758300 
Al      6.04409000       2.03153000       4.03509000       13       0.05976100      -0.09649800       0.02735600 
Al      6.05463000       8.05514000       6.05197000       13      -0.04206400       0.12381700      -0.05647000 
Al      4.02414000       2.03439000       6.03975000       13       0.09856600      -0.06058900       0.05516900 
Al      4.00695000       4.05487000       8.06037000       13       0.16745500      -0.10589300       0.09130900 
Al      6.06077000       6.06620000       8.05062000       13      -0.01830800      -0.07323500       0.12106600 
Al      6.06200000       4.04156000       2.02476000       13      -0.04766000       0.02794200      -0.05855200 
Al      4.04173000       6.05965000       2.01529000       13      -0.03954500      -0.01168200      -0.02499500 
Al      4.04120000       4.03882000       4.04320000       13       0.00911200       0.02899600      -0.06131100 
Al      6.04761000       6.05894000       4.04236000       13       0.05396900      -0.04335200      -0.02277300 
Al      6.05694000       4.03207000       6.06090000       13      -0.00483900       0.00834000       0.00362800 
Al      4.04423000       6.06116000       6.04969000       13      -0.04024900      -0.03644500      -0.00727000 
32
Lattice="8.07112458 0.0 0.0 1.5e-07 8.07112458 0.0 1.5e-07 1.5e-07 8.07112458" Properties=species:S:1:pos:R:3:Z:I:1:force:R:3 energy=-119.78039353 pbc="T T T"
Al      0.00288000       0.01687000       8.05857000       13       0.02509600      -0.04700300       0.12546200 
Al      2.04385000       2.00431000       0.00051000       13      -0.07682000       0.06183000       0.03684300 
Al      1.99505000       0.02998000       2.03222000       13       0.11212000      -0.11861900      -0.12690500 
Al      8.06922000       2.03455000       2.02868000       13      -0.01986300      -0.08409400      -0.04995500 
Al      0.00994000       8.05927000       4.02912000       13      -0.06481400       0.08949000       0.02519400 
Al      2.03903000       2.03914000       4.02519000       13      -0.10570100      -0.09574700       0.07145100 
Al      2.02802000       0.01069000       6.05580000       13      -0.07069000      -0.05551000      -0.01886400 
Al      8.04616000       2.00223000       6.06429000       13       0.11623000       0.07471900      -0.07019900 
Al      8.05243000       4.03048000       8.06778000       13       0.05681400      -0.02786600       0.00218600 
Al      2.00282000       6.00280000       0.00326000       13       0.01365500       0.24416300      -0.01564000 
Al      2.01436000       4.02518000       2.02946000       13       0.06921700      -0.00057300      -0.05364900 
Al      0.02437000       6.06784000       2.01548000       13      -0.10842000      -0.04060500      -0.00808000 
Al      0.01422000       4.01895000       4.02091000       13      -0.05003900       0.12384900       0.13816600 
Al      2.03335000       6.04598000       4.03469000       13      -0.06550200       0.00052500       0.03923200 
Al      2.03838000       4.02359000       6.04828000       13      -0.19208100       0.06952300      -0.01657800 
Al      8.05568000       6.09155000       6.07658000       13       0.15376400      -0.19108100      -0.13740400 
Al      4.03918000       8.05805000       8.02429000       13      -0.07340000       0.01013100       0.18395900 
Al      6.05233000       1.98592000       0.02378000       13      -0.07092800       0.12288200      -0.07999500 
Al      6.02460000       8.05610000       2.02366000       13       0.15768500       0.00864900       0.00097900 
Al      4.06245000       1.98614000       2.03921000       13      -0.10413400       0.15483000      -0.12976700 
Al      4.00989000       8.06119000       4.04130000       13       0.08600500       0.04987400       0.00462600 
Al      6.04101000       2.03611000       4.03494000       13       0.07555000      -0.12993800       0.04311200 
Al      6.05505000       8.04983000       6.05150000       13      -0.05613400       0.18123700      -0.07933200 
Al      4.02035000       2.03991000       6.03523000       13       0.13392600      -0.09651500       0.08727200 
Al      3.99744000       4.06130000       8.05680000       13       0.22626200      -0.14067100       0.12530900 
Al      6.06324000       6.07047000       8.04380000       13      -0.03226300      -0.09992300       0.17197800 
Al      6.06488000       4.04356000       2.02707000       13      -0.07835300       0.03007700      -0.08860300 
Al      4.04378000       6.06175000       2.01445000       13      -0.05594000      -0.01947100      -0.03658000 
Al      4.04308000       4.03991000       4.04574000       13       0.01231600       0.03632100      -0.08977900 
Al      6.04571000       6.06080000       4.04462000       13       0.07625100      -0.06111500      -0.04010600 
Al      6.05814000       4.03091000       6.06343000       13      -0.00365000       0.00663100       0.00444500 
Al      4.04712000       6.06376000       6.04847000       13      -0.06826500      -0.06300600      -0.00783200 
32
Lattice="8.07112458 0.0 0.0 1.5e-07 8.07112458 0.0 1.5e-07 1.5e-07 8.07112458" Properties=species:S:1:pos:R:3:Z:I:1:force:R:3 energy=-119.73796539 pbc="T T T"
Al      0.00360000       0.02108000       8.05545000       13       0.03541900      -0.05675300       0.16313900 
Al      2.05036000       2.00095000       0.00064000       13      -0.10552200       0.07746200       0.04279200 
Al      1.98938000       0.03746000       2.03581000       13       0.13548300      -0.14276300      -0.15871200 
Al      8.06874000       2.03872000       2.03140000       13      -0.02523700      -0.10052000      -0.06021000 
Al      0.01241000       8.05632000       4.02752000       13      -0.07912500       0.10962300       0.03672500 
Al      2.04433000       2.04446000       4.02260000       13      -0.13501100      -0.12743000       0.08976500 
Al      2.03057000       0.01335000       6.05641000       13      -0.09240500      -0.06899800      -0.02362700 
Al      8.03994000       1.99835000       6.06702000       13       0.14463800       0.09274200      -0.09908700 
Al      8.04776000       4.02920000       8.06694000       13       0.06836600      -0.03919600       0.00273700 
Al      1.99908000       5.99020000       0.00407000       13       0.02116500       0.30290900      -0.02293200 
Al      2.01352000       4.02258000       2.03237000       13       0.08853200       0.00329600      -0.07484400 
Al      0.03045000       6.07146000       2.01491000       13      -0.14048300      -0.05381900      -0.00330000 
Al      0.01777000       4.01481000       4.01726000       13      -0.07464800       0.15986200       0.18977000 
Al      2.03724000       6.04413000       4.03448000       13      -0.08152800       0.00314200       0.04771600 
Al      2.04350000       4.02061000       6.04701000       13      -0.24867900       0.08971900      -0.01469700 
Al      8.05184000       6.10108000       6.08236000       13       0.18747200      -0.24128000      -0.17685500 
Al      4.04007000       8.05478000       8.01261000       13      -0.09021800       0.01828300       0.22468000 
Al      6.05206000       1.97797000       0.02971000       13      -0.09041100       0.15860900      -0.09873000 
Al      6.01745000       8.05235000       2.02513000       13       0.19921900       0.00642800      -0.00290000 
Al      4.06915000       1.97826000       2.04455000       13      -0.12543000       0.18998400      -0.15766700 
Al      4.00349000       8.05872000       4.04273000       13       0.11433400       0.06702600       0.00126100 
Al      6.03794000       2.04067000       4.03479000       13       0.09777900      -0.15739600       0.05731000 
Al      6.05547000       8.04454000       6.05103000       13      -0.06662400       0.22720600      -0.10655100 
Al      4.01657000       2.04543000       6.03071000       13       0.17416400      -0.11783800       0.10650500 
Al      3.98794000       4.06771000       8.05324000       13       0.28989400      -0.16975100       0.15394900 
Al      6.06571000       6.07474000       8.03700000       13      -0.05387200      -0.12735400       0.22658600 
Al      6.06775000       4.04557000       2.02938000       13      -0.09640500       0.04346900      -0.10750800 
Al      4.04583000       6.06385000       2.01361000       13      -0.07811600      -0.03366300      -0.04545400 
Al      4.04495000       4.04101000       4.04827000       13       0.01688400       0.04680700      -0.11651200 
Al      6.04381000       6.06265000       4.04688000       13       0.10265100      -0.08294500      -0.05514000 
Al      6.05933000       4.02975000       6.06595000       13      -0.01161500       0.01446600      -0.00766600 
Al      4.05000000       6.06635000       6.04725000       13      -0.08973100      -0.08616400      -0.00458500 
32
Lattice="8.07112458 0.0 0.0 1.5e-07 8.07112458 0.0 1.5e-07 1.5e-07 8.07112458" Properties=species:S:1:pos:R:3:Z:I:1:force:R:3 energy=-119.6866665 pbc="T T T"
Al      0.00432000       0.02529000       8.05235000       13       0.04559000      -0.06656700       0.19995700 
Al      2.05685000       1.99760000       0.00078000       13      -0.12228400       0.09455400       0.05195100 
Al      1.98373000       0.04493000       2.03938000       13       0.16175000      -0.16814000      -0.18170200 
Al      8.06826000       2.04289000       2.03412000       13      -0.02939700      -0.12326800      -0.07724600 
Al      0.01488000       8.05338000       4.02591000       13      -0.09002200       0.12758400       0.04379100 
Al      2.04961000       2.04977000       4.02003000       13      -0.16150000      -0.14934800       0.10993900 
Al      2.03311000       0.01601000       6.05702000       13      -0.11224600      -0.07967600      -0.03105000 
Al      8.03373000       1.99448000       6.06974000       13       0.16840500       0.10711800      -0.11966400 
Al      8.04310000       4.02792000       8.06611000       13       0.08050700      -0.04523100       0.00300800 
Al      1.99534000       5.97763000       0.00488000       13       0.02032900       0.37330700      -0.02138800 
Al      2.01268000       4.01999000       2.03527000       13       0.11300700       0.00523300      -0.09158100 
Al      0.03651000       6.07508000       2.01433000       13      -0.16574900      -0.06073200      -0.00119000 
Al      0.02131000       4.01070000       4.01364000       13      -0.08877600       0.20022200       0.23372200 
Al      2.04111000       6.04229000       4.03427000       13      -0.09585400       0.00368300       0.05430800 
Al      2.04860000       4.01763000       6.04574000       13      -0.30368900       0.10421400      -0.01976500 
Al      8.04802000       6.11058000       6.08813000       13       0.22689800      -0.28674000      -0.22093000 
Al      4.04095000       8.05152000       8.00095000       13      -0.10996700       0.02932500       0.27701100 
Al      6.05179000       1.97004000       0.03563000       13      -0.10758900       0.19373600      -0.11193500 
Al      6.01030000       8.04860000       2.02660000       13       0.23734000       0.00647100      -0.00582100 
Al      4.07584000       1.97039000       2.04988000       13      -0.15578400       0.22506200      -0.19463500 
Al      3.99710000       8.05625000       4.04416000       13       0.13926600       0.07491800      -0.00122000 
Al      6.03488000       2.04521000       4.03464000       13       0.12509900      -0.18695900       0.07649900 
Al      6.05588000       8.03926000       6.05055000       13      -0.08306100       0.28619800      -0.12599700 
Al      4.01280000       2.05094000       6.02621000       13       0.21041800      -0.14454900       0.12826300 
Al      3.97847000       4.07410000       8.04970000       13       0.35131200      -0.21340900       0.18023900 
Al      6.06818000       6.07899000       8.03021000       13      -0.06191600      -0.15368800       0.27614400 
Al      6.07061000       4.04758000       2.03168000       13      -0.11358500       0.05663200      -0.12892000 
Al      4.04787000       6.06594000       2.01277000       13      -0.09611900      -0.04542800      -0.05625900 
Al      4.04684000       4.04210000       4.05079000       13       0.02281200       0.05400500      -0.14053900 
Al      6.04192000       6.06450000       4.04913000       13       0.12335600      -0.09908300      -0.06238800 
Al      6.06053000       4.02858000       6.06847000       13      -0.01264700       0.01467800      -0.01080400 
Al      4.05287000       6.06894000       6.04603000       13      -0.10770300      -0.10339600      -0.01216200 
32
Lattice="8.07112458 0.0 0.0 1.5e-07 8.07112458 0.0 1.5e-07 1.5e-07 8.07112458" Properties=species:S:1:pos:R:3:Z:I:1:force:R:3 energy=-119.62604327 pbc="T T T"
Al      0.00505000       0.02949000       8.04926000       13       0.06032600      -0.07809400       0.23675300 
Al      2.06333000       1.99426000       0.00092000       13      -0.14406800       0.10961500       0.06324900 
Al      1.97809000       0.05237000       2.04294000       13       0.19018000      -0.19860600      -0.20847500 
Al      8.06778000       2.04705000       2.03682000       13      -0.03578600      -0.15139300      -0.09609300 
Al      0.01734000       8.05046000       4.02432000       13      -0.10583600       0.15329500       0.05268800 
Al      2.05488000       2.05507000       4.01746000       13      -0.17954800      -0.16788900       0.12389200 
Al      2.03564000       0.01866000       6.05763000       13      -0.13531400      -0.09559200      -0.04088800 
Al      8.02753000       1.99063000       6.07244000       13       0.19141200       0.12111900      -0.13946000 
Al      8.03845000       4.02664000       8.06527000       13       0.10345500      -0.05358100       0.00615100 
Al      1.99161000       5.96510000       0.00569000       13       0.01932200       0.43416100      -0.01932400 
Al      2.01186000       4.01739000       2.03817000       13       0.12921100       0.01201300      -0.11341900 
Al      0.04256000       6.07868000       2.01375000       13      -0.19658100      -0.07510300       0.00035800 
Al      0.02484000       4.00659000       4.01003000       13      -0.09865900       0.23326000       0.26671100 
Al      2.04498000       6.04045000       4.03407000       13      -0.11663900       0.00544700       0.06270400 
Al      2.05367000       4.01467000       6.04447000       13      -0.36026100       0.12433500      -0.02086600 
Al      8.04422000       6.12005000       6.09388000       13       0.26823300      -0.34806300      -0.25912400 
Al      4.04183000       8.04825000       7.98931000       13      -0.11914500       0.03812300       0.32651400 
Al      6.05151000       1.96212000       0.04155000       13      -0.12892300       0.22996900      -0.13226800 
Al      6.00318000       8.04484000       2.02807000       13       0.27683300       0.00063400      -0.00002300 
Al      4.08252000       1.96255000       2.05518000       13      -0.18855900       0.26379900      -0.22340000 
Al      3.99072000       8.05379000       4.04560000       13       0.16311600       0.08558400      -0.00012000 
Al      6.03182000       2.04974000       4.03450000       13       0.14756000      -0.21376100       0.08943000 
Al      6.05629000       8.03401000       6.05006000       13      -0.09628300       0.35125400      -0.15316900 
Al      4.00906000       2.05643000       6.02171000       13       0.23921200      -0.17226200       0.14793900 
Al      3.96904000       4.08048000       8.04617000       13       0.42452500      -0.25656600       0.20557300 
Al      6.07064000       6.08324000       8.02345000       13      -0.07887100      -0.17493100       0.32868800 
Al      6.07346000       4.04959000       2.03397000       13      -0.13638200       0.06546800      -0.14740700 