837
Lattice="24.24 0.0 0.0 0.0 24.24 0.0 0.0 0.0 24.24" Properties=species:S:1:pos:R:3:Z:I:1:force:R:3 energy=-3031.21429874 pbc="T T T"
Al      2.27955000       0.16549000       2.06327000       13      -0.64048200      -0.56693900      -0.61461400 
Al      3.96545000       6.22848000      18.33310000       13       0.16885600      -0.57966500      -0.17140700 
Al      2.14742000       8.26913000      18.09180000       13      -0.43630000      -0.84126600      -0.40330900 
Al      4.10041000       8.17267000      16.02370000       13      -0.48534400       0.52828100      -0.02762000 
Al     24.01741000       8.38525000      16.00440000       13       1.73773200      -0.81087800       0.35422300 
Al      5.84151000       6.30718000      15.97510000       13       1.04202100      -0.78325200       0.55134900 
Al      6.03311000       8.03669000      18.18940000       13      -0.18529800       0.49374800      -0.34244300 
Al      8.00122000       6.44522000      18.08200000       13       0.41347500      -1.71544800       0.55904800 
Al      8.17508000       8.25420000      16.33750000       13      -1.14892900       0.52385700      -2.05392300 
Al     10.01190000       6.00393000      15.92360000       13       0.23667000      -0.10233700       0.36746900 
Al     14.27460000       5.92052000      15.96070000       13      -0.89327100       0.58467200       0.01119400 
Al      2.08737000       6.02962000      15.94560000       13       0.04668900       0.94177400      -0.04003000 
Al     12.17760000       6.27631000      18.34450000       13      -0.52643500      -0.65538600      -1.07610800 
Al     12.12090000       7.87972000      16.08850000       13       0.12838800       0.28978800      -0.37722100 
Al     14.18950000       8.03582000      18.17860000       13      -0.46870700       0.94381700      -0.08416400 
Al     18.01190000       6.08764000      16.31830000       13      -0.52206500       0.41758800      -1.66838900 
Al     15.96370000       6.15386000      18.02640000       13       0.57168800      -0.80294900       0.74893100 
Al     16.13220000       8.08454000      16.12860000       13       0.02220200       0.33261600      -0.10633700 
Al     18.34010000       8.06018000      18.39250000       13      -0.66628600       0.14784700      -0.36474400 
Al     24.07310000       6.21194000      18.15720000       13      -0.24536900       0.81327400      -0.46783100 
Al     22.12960000       6.43456000      16.22550000       13       0.28571500      -0.85468000      -0.90582100 
Al     20.11990000       6.11328000      17.73940000       13       0.35466200       0.78043400       1.93220500 
Al     19.88550000       8.29142000      16.09060000       13       0.25278900       0.11126700      -0.07693500 
Al     10.06280000       8.09916000      17.88500000       13       0.99131300       0.28445800       0.92389500 
Al     22.21390000       8.31809000      17.97900000       13      -0.31770300       0.18649400       1.36177600 
Al     20.53190000       0.32554000      16.23060000       13      -1.12267000      -1.15498200      -0.12133000 
Al     21.85950000       4.18437000      18.51880000       13      -0.12794700       0.07815700      -0.64528200 
Al      6.13125000       2.17562000      16.27770000       13       0.21273300      -0.43183400      -0.47657700 
Al      6.22319000       4.32819000      18.15920000       13      -0.99622500       0.27319300      -0.75107900 
Al      8.54486000       2.07461000      18.03940000       13      -0.31499800      -0.13555200      -0.03069700 
Al      8.06303000       4.07458000      15.97760000       13       0.15700300       0.02574000       0.11694100 
Al      6.12822000       0.05143000      17.85660000       13      -0.00251200       0.36405500      -0.10160000 
Al     10.23370000       1.80895000      15.98070000       13       0.14759800       0.17357800       0.30513600 
Al     10.48970000       4.16149000      18.21630000       13      -0.71156300       0.20211400       0.02358100 
Al     14.00380000       1.83562000      15.97460000       13       0.52727300       0.51292700       0.20408300 
Al     12.17130000       2.02314000      18.02370000       13      -0.26664900      -0.72124500       0.30351100 
Al     12.20600000       4.10382000      16.13820000       13       0.00719600      -0.13784500      -0.45507600 
Al     22.37500000       0.03728000      18.22060000       13      -1.11931100       0.47612600       1.22954500 
Al     13.90520000       3.84364000      18.30630000       13       0.85776800       0.78391200      -0.23515700 
Al     18.44640000       2.35713000      16.22770000       13      -1.13017500      -1.12078200       0.11799700 
Al     18.07260000       0.16471000      18.20800000       13       1.27705300      -0.06696800       0.50965700 
Al     16.25460000       1.88185000      18.30620000       13      -0.13478500       1.86942300      -0.39332100 
Al     15.94730000       3.90467000      16.27160000       13       0.46626900      -0.08409900       0.18390700 
Al     18.25960000       4.23887000      18.09010000       13      -0.52629100      -0.84069900       0.71654200 
Al     16.30220000       0.06487000      16.18740000       13      -0.36514900       0.16030900      -0.17548900 
Al     24.20690000       4.13912000      16.35110000       13      -0.61030800       1.13412600      -1.44359000 
Al     22.16210000       2.35415000      16.07500000       13       0.51984500       0.27648800       0.32170000 
Al     20.32630000       1.94673000      18.14500000       13      -0.05239900       0.63728200       1.06669900 
Al     20.13060000       4.22717000      16.06150000       13       0.71998700       0.12955800      -0.45508400 
Al     14.46700000       0.09494000      18.20990000       13      -1.28732000      -0.39761400       0.18886800 
Al      0.01107000       2.22853000      17.84910000       13      -0.33354200      -0.81551400       1.09159100 
Al      2.03237000      10.05900000      15.93330000       13       0.00768100       0.03586900       0.73256000 
Al      0.15751000      11.94180000      16.36920000       13      -0.15646000       0.17702400      -0.33212300 
Al     16.11140000      14.16750000      18.36060000       13      -0.41160700       0.36142900      -0.39443100 
Al     22.19520000       9.97879000      15.89440000       13      -1.11079500       0.92932700       0.80894100 
Al     20.13590000      10.25940000      18.32550000       13      -0.19443400      -0.48310900      -0.10224600 
Al     19.98100000      12.05300000      16.32420000       13      -0.06414300       0.73510200       0.05079800 
Al     22.22280000      13.93130000      16.35370000       13      -0.24825700       0.43290700       0.02063900 
Al     22.10240000      11.91270000      18.08950000       13       0.79679800      -0.17186100      -0.16611800 
Al     20.05400000      13.73110000      18.63410000       13      -0.10079500       0.07118800      -0.93668600 
Al      2.14885000      18.24410000      16.13240000       13      -1.09918600      -0.37152100       0.58472500 
Al      1.96158000      16.49190000      18.31510000       13      -0.17819000      -1.00528500      -0.38815500 
Al      3.92910000      16.41430000      16.20840000       13       0.40471500      -0.87199100       0.52217600 
Al     17.94520000      12.02730000      18.46760000       13       0.29070400       1.07592000      -1.15231500 
Al      3.86885000      18.35870000      18.75050000       13       0.70793900       0.09625400      -0.57529800 
Al      6.31508000      18.08920000      16.03840000       13      -0.86513800       0.68511800       0.56726400 
Al      5.94164000      16.38020000      18.43100000       13       0.13650500      -0.20642500      -0.59028400 
Al      8.00397000      16.18240000      16.12490000       13       0.19570600      -0.41680700      -0.04178300 
Al      8.01695000      18.37420000      18.17710000       13       0.07246000      -0.27187700       0.17406300 
Al      9.87641000      18.35490000      15.95130000       13       0.89124400      -1.02285800       0.28727100 
Al      9.83596000      16.36770000      18.10040000       13       0.42111000      -0.44069900       0.43936900 
Al     11.93160000      16.22500000      16.17920000       13       0.07994400       0.31642100       0.41977100 
Al     13.98550000      18.34570000      16.09560000       13       0.69054900      -0.24111900       0.72655700 
Al     14.15990000      16.25130000      18.50650000       13       0.39602400       0.38458400      -1.88100600 
Al     12.06890000      18.41270000      18.32500000       13      -0.04215700      -1.10912000      -0.01242500 
Al      0.40121000      16.20240000      16.15730000       13      -1.40550500       0.03487700       0.88804600 
Al      0.19812000      10.06710000      18.38180000       13      -1.04548600       0.17304000      -0.86328500 
Al     18.14020000      14.36710000      16.23870000       13       0.43956000      -0.52013700       0.29040100 
Al     16.09310000      10.09420000      18.20660000       13      -0.44771200      -0.24214400       0.13194400 
Al      2.09555000      14.17790000      16.31860000       13       0.02409900      -0.16223400      -0.28525500 
Al      2.29921000      12.00550000      18.32690000       13      -0.69475000       0.82580700      -0.01071000 
Al      0.06488000      13.93310000      18.23750000       13       0.29400400       0.08095100      -0.00762300 
Al      4.08705000      10.19560000      18.33550000       13       0.19434000      -0.21719000      -0.90068800 
Al      3.94345000      12.19410000      16.06430000       13       0.35662100      -0.12460900       0.31879800 
Al      4.06235000      14.16670000      18.14230000       13      -0.42371500       0.53341300       0.10268400 
Al      6.03765000      10.45450000      16.16630000       13       0.15088400      -0.78996900       0.11704300 
Al      6.02799000      14.31910000      16.21180000       13       0.02633500      -0.30778700       0.07398900 
Al      5.81209000      12.19030000      18.48740000       13       0.20594900      -0.09461300      -0.45882900 
Al      8.17931000      10.39640000      17.94280000       13      -0.28561300      -0.91965100       0.53765400 
Al     16.17420000      12.39650000      16.20820000       13      -0.27235800       0.21444600       0.39068200 
Al      8.23493000      12.30350000      16.24060000       13      -1.02820500      -0.72821100      -0.36894400 
Al     10.16310000      12.00250000      18.73500000       13       0.37890300       0.55055200      -0.76493600 
Al     10.30160000      10.26560000      15.81760000       13      -0.38092900      -0.65852700       0.40061000 
Al     14.19270000      10.60490000      16.08990000       13      -0.68080300      -1.06616400       0.24577300 
Al     11.93580000      10.10870000      18.14290000       13       0.64464800      -0.20381100      -0.32546700 
Al     12.01440000      12.29590000      15.93060000       13       0.06080200       0.02441100       0.06791900 
Al     14.12520000      14.19690000      15.87580000       13      -0.20578400       0.03467500       1.18781900 
Al     13.86170000      12.22760000      18.15530000       13       0.28247800       0.31347400       0.03054400 
Al     12.02600000      14.11430000      17.91260000       13      -0.38466400       0.53741700       0.32753400 
Al      9.77957000      14.13640000      15.93380000       13       1.55015600       1.15246200       1.07793800 
Al     17.92470000      10.35260000      16.28750000       13       0.61447300      -0.91876600       0.18939400 
Al      7.99365000      13.96070000      18.47560000       13       0.14035900       0.88427900      -0.39684100 
Al      4.30486000       4.07011000      16.09150000       13      -0.84839800       0.15091200       0.09017900 
Al      3.92006000       2.30787000      18.19830000       13      -0.06064000       0.50402800      -0.50679200 
Al      1.89140000       4.49115000      18.02680000       13       0.84134000      -1.25587200       0.52942100 
Al      7.95635000      18.03050000      13.95070000       13       0.35938900      -0.12861000       0.29760600 
Al      9.90663000      16.10830000      10.13740000       13       0.64254300       0.71466900      -0.18442000 
Al     10.21560000      18.25280000      12.64070000       13      -1.01080500       0.26262400      -1.67615600 
Al     10.18300000      16.03600000      14.09780000       13      -0.38991200       1.26546400       1.12893800 
Al     11.95340000      18.13070000      10.17140000       13      -0.41914000       0.09800300      -0.03093900 
Al     12.13490000      16.24080000      12.17580000       13       0.25088300      -0.00606500      -0.48728800 
Al     13.84640000      18.33600000      11.95500000       13       1.03742600       0.27327200      -0.02479800 
Al     13.91400000      16.54680000      14.34060000       13       0.54969300      -0.51424600      -0.95002900 
Al     12.18190000      18.70090000      13.99260000       13       0.95467300      -0.19255600       0.92374300 
Al     14.65800000      16.31890000      10.05830000       13      -1.68722300      -0.30016800       0.10691100 
Al      7.74450000      15.92740000      11.82220000       13       0.95348700      -0.24021600       1.37067100 
Al     18.02150000      16.22510000      10.36090000       13       0.38552600       0.11755500      -0.04772900 
Al     15.89780000      16.31180000      12.31470000       13       0.40443200       0.15991200       0.15529500 
Al     18.40400000      18.28820000      12.20470000       13      -0.52584600       0.08716400      -0.01837700 
Al     18.23360000      16.20930000      14.19930000       13       0.09559000      -0.51774000      -0.00752000 
Al     23.98020000      15.98270000      12.12890000       13       0.47311500      -0.03801800       0.07960700 
Al     24.05140000      18.12210000      14.30470000       13       0.71439700      -0.53964700       0.26311100 
Al     22.22880000      16.04870000      10.18070000       13      -0.21419400       0.31512000      -0.40158500 
Al     20.33180000      18.09190000      10.29330000       13      -0.12909900       0.33055500      -0.70391500 
Al     20.13350000      16.11650000      12.23700000       13       0.47749800      -0.45567500       0.04803900 
Al     22.28490000      18.18350000      12.28510000       13      -1.02466000      -2.02055800      -1.21968300 
Al     22.30290000      15.78130000      14.26750000       13      -0.85913400       0.75517400       0.10067800 
Al     16.12200000      18.45480000       9.67573000       13      -0.30191900       0.75508600       1.38330700 
Al     20.18210000      18.09660000      14.38530000       13      -0.00592400      -1.02637900      -0.35803100 
Al      8.09679000      18.10710000      10.40400000       13       0.07314100       0.64404200      -0.78556000 
Al      6.09652000      17.85370000      12.14030000       13      -1.06318900       0.62505900      -0.40226500 
Al     16.22520000      14.22190000      10.06170000       13      -0.28969800      -0.42814900      -0.42711300 
Al     16.01720000      12.08400000      12.22360000       13       1.14504100      -0.10451200      -0.71417300 
Al     17.90930000      14.03420000      12.20500000       13       0.78131300       0.55649800      -0.12284000 
Al     17.84810000      12.00760000      14.18020000       13       1.01403200       1.21779200      -0.33939800 
Al     16.16990000      14.32850000      14.11880000       13      -0.33538800      -0.41976200      -0.00549900 
Al      0.04910000      11.99640000      11.86630000       13      -0.15013200       0.74809800       0.74756600 
Al      0.19360000      14.27850000       9.90878000       13      -0.40334500      -0.44672000       0.30084900 
Al     20.44260000       9.79607000       9.94437000       13      -0.74545800       1.09743100       0.06594900 
Al     22.21050000      10.11880000      11.93580000       13       0.11039400      -0.09164100       0.50038600 
Al     20.00140000      10.45940000      14.12090000       13      -0.10721000      -0.73601000      -0.41698400 
Al      5.67196000      16.11080000      14.13910000       13       1.14269500      -0.44434200       0.16604800 
Al     22.14150000      12.05190000      10.06900000       13       0.48357600      -0.22195400      -0.07653200 
Al     22.01180000      13.48580000      12.38280000       13       0.46422600       0.92979100      -0.72261900 
Al     21.97630000      12.06060000      14.46700000       13       0.99042300       0.20642900      -0.18307400 
Al     19.94140000      13.78980000      14.00570000       13      -0.16679100       0.50338900       0.52018500 
Al      1.91280000      16.29550000      10.03720000       13       0.42440700      -0.80755900      -0.11849500 
Al      2.03838000      18.02970000      12.14520000       13      -0.68375300       0.39998100       0.36004900 
Al      1.74623000      16.09810000      14.00200000       13       0.90118400      -0.24880800      -0.18448000 
Al      3.99861000      17.99480000      10.41650000       13       0.55706800       0.47328700      -0.90137000 
Al      3.88060000      15.95520000      12.17910000       13      -0.01826400      -0.04397900      -0.29500500 
Al      4.17724000      18.25920000      14.26150000       13      -0.88643600      -1.08875300      -0.47753400 
Al      6.08238000      15.91550000       9.95239000       13      -0.75795700       0.37929300      -0.32714800 
Al     20.48950000      14.03880000      10.16220000       13      -1.18888700       0.35507300       0.23984900 
Al      1.76613000      23.94880000      14.34840000       13      -0.10472800       0.36756900      -0.05877400 
Al      3.97525000      23.99960000      12.24900000       13      -0.68734300       0.51080500      -0.07893600 
Al      1.94913000      24.11800000      10.25490000       13       1.06804300      -0.14885500       0.50509200 
Al     12.16820000      22.25240000      14.35720000       13       0.51530000      -0.11090100      -0.69433800 
Al     18.35830000      24.11990000      10.48810000       13      -0.82381000      -0.06423600      -0.85763900 
Al     16.41830000      24.12420000      12.42210000       13      -0.07260700       0.31786800      -0.44881800 
Al     18.25580000       0.29860000      14.43960000       13       0.42100900      -0.46723900      -0.26986800 
Al     18.23370000      20.28570000      10.20900000       13       0.78300100      -1.04535600       0.58538700 
Al     16.29610000      22.03360000      10.31800000       13      -0.65578400       0.53723300       0.66599500 
Al     16.08890000      20.06990000      12.17410000       13       0.64603700      -0.32581300      -0.61230100 
Al     18.45420000      22.04570000      12.33220000       13      -0.78296900      -0.07451200      -0.96924500 
Al     18.27540000      20.11410000      14.30000000       13       0.18860200       0.12787700       0.25695600 
Al     16.35320000      22.09580000      14.18420000       13       0.33693700       0.54302700       0.12196900 
Al     14.49100000      20.24350000      14.13430000       13      -0.75856400      -0.47198500       1.02458000 
Al     20.25190000      24.21640000      12.15230000       13       0.77429700      -0.75165200       1.03358500 
Al     24.06680000      21.93250000      14.27260000       13       0.07857700       0.30801400       0.57742400 
Al      0.02020000      24.18170000      12.20490000       13       0.04012300      -0.25022100       0.25252100 
Al     22.33550000       0.16880000      10.55020000       13       0.40625100      -0.27313600      -0.95090400 
Al     22.30160000      20.12030000      10.01100000       13      -0.48302700      -0.55893400       0.47299200 
Al     20.50670000      22.26160000      10.16400000       13      -0.38174100      -0.59761700       0.91351800 
Al     22.34020000      22.11570000      12.25330000       13      -0.33475800       0.23487900      -0.39576900 
Al     21.64700000      20.01800000      13.78460000       13       0.08796600       1.69143600       1.06875100 
Al     19.97020000      22.30830000      14.25680000       13       1.08099700       0.03995500       0.88069500 
Al      2.04092000       1.90865000      15.97860000       13      -0.13361900       0.10318100       0.28853200 
Al      1.89676000       0.03213000      18.00330000       13       0.17849100       0.54773000      -0.14179800 
Al     22.04520000       0.05780000      14.17500000       13       0.78152200      -0.47042000      -0.53509700 
Al     13.60060000      21.50410000      12.08060000       13       0.07108800       0.43424500      -0.18017200 
Al     12.21660000      22.21510000       9.94011000       13      -1.62580300       0.67524400       0.18277200 
Al     13.86800000      20.45040000       9.53976000       13       1.25259700      -1.48395100       0.66637300 
Al      1.88933000      19.86970000      10.01740000       13      -0.44171400      -0.39039800       0.60904600 
Al     24.23959000      21.86150000       9.94170000       13       0.03397800       0.79824400       1.10883500 
Al      1.90161000      22.15850000      12.39120000       13      -0.60668500      -0.67400000      -0.31212500 
Al      2.22133000      19.90860000      14.20000000       13      -1.27111400       0.86116400      -0.58128700 
Al      3.74620000      21.70010000      10.60020000       13       0.15024600       0.80450400      -0.48607200 
Al      3.96806000      21.85070000      14.20650000       13      -0.40961800       0.51060000       0.89866100 
Al     24.03860000      19.85690000      12.49910000       13       1.54634000       1.53826300      -1.22009600 
Al      7.56997000      23.86360000      12.28070000       13       1.95200100       0.80737600      -0.33676800 
Al      5.77602000      24.06490000      10.17100000       13       0.07609100      -0.65839400      -0.23006100 
Al      5.81314000      20.20190000      10.54310000       13       0.47660800      -0.91010200      -0.51130200 
Al      5.81514000      22.16360000      12.51520000       13       0.10655800      -0.92064500      -1.02501600 
Al      5.89716000      19.95350000      13.87540000       13       0.93679100       0.65037300       0.61880700 
Al      7.74201000      22.05560000      10.27290000       13       0.37780000       0.09060200      -0.63458100 
Al      8.06852000      20.34730000      12.29960000       13       0.37127200      -0.76519400      -0.16686300 
Al      8.05575000      22.15050000      14.28490000       13      -0.24176300      -0.63004300      -0.30785400 
Al      9.77307000      24.04110000      10.20900000       13       0.00130900      -0.02704700      -0.25647000 
Al      9.97761000      24.12090000      14.17560000       13       0.64111600      -0.19536100      -0.61074600 
Al     12.28150000       0.05300000      12.25430000       13      -0.62430000      -1.26315200      -0.29499500 
Al     14.23860000      23.88790000      10.53650000       13       0.40736500       0.49760700      -0.04119900 
Al     14.29530000      24.09010000      14.08750000       13      -0.02457300      -0.19031600       0.15172400 
Al     10.02720000      20.13810000      10.01020000       13       0.28197000       0.40490900       1.29328500 
Al     10.07030000      22.20050000      12.03870000       13       0.44412800      -0.25405700       0.37879000 
Al     10.28640000      20.46570000      14.36050000       13      -0.90311200      -0.28029800      -0.76127700 
Al     16.43470000      18.12170000      14.31720000       13      -0.81969300       0.37460500       0.18336500 
Al     16.01190000      15.98880000      16.15540000       13       0.07434600       1.02351300       0.59893900 
Al     18.42460000      17.92460000      16.39610000       13      -0.89248500       0.38231800      -0.34544600 
Al     17.88490000      16.29000000      18.47590000       13       1.33469300      -0.37901500      -1.00923500 
Al     17.95550000      10.25000000       0.01880000       13      -0.62994800      -0.18197300      -1.10530000 
Al     17.91370000      14.00600000       0.12240000       13       0.46796000       0.10297800      -0.46332800 
Al     18.11120000      10.30360000      20.21400000       13      -0.00787500      -0.71866300       0.68648900 
Al     15.81160000      10.18070000      22.11160000       13       0.64160100      -0.27787600      -0.32417100 
Al     15.84300000      12.22500000      20.13860000       13       0.12078600      -0.03070600       0.37925500 
Al     18.02900000      14.07710000      20.34800000       13      -0.09191900       0.74716800      -0.30473900 
Al     18.02290000      12.23860000      22.11900000       13      -0.12138400      -0.96186600       0.26859300 
Al     15.72650000      14.32090000      21.97330000       13       0.97270900      -0.24243100       0.47319900 
Al     20.04890000      11.90320000      24.08000000       13       0.18279200       0.75930600       0.72049200 
Al      0.17090000      10.15400000      22.54800000       13      -0.00154900      -0.15238300      -0.51674300 
Al     16.00140000      12.29550000      23.76380000       13      -0.68673700      -0.20003400       1.03489500 
Al     22.41550000      10.20930000       0.14890000       13      -0.19677700      -0.68645700      -0.05978900 
Al     20.41730000      10.15340000      22.31190000       13      -0.93448200       1.16040800      -1.80303000 
Al     22.17960000      13.53430000      20.18070000       13       0.15590900       0.62575400       0.35667000 
Al     22.30800000      12.13430000      22.44420000       13       0.21505400      -0.15330700      -0.08347200 
Al     20.06670000      13.84220000      22.16070000       13       0.53924200       0.57245100       0.01383200 
Al      4.09892000      16.23280000       0.24000000       13      -0.21381600       0.90628300      -2.02639800 
Al      2.07861000      18.26630000       0.05680000       13      -0.42702500      -0.79292800      -0.96502300 
Al      1.83846000      18.12640000      20.38230000       13      -0.58183500       0.16906800       0.48894300 
Al      1.87962000      16.14960000      22.43030000       13       0.51495300       0.65796600      -0.50811800 
Al      3.74495000      16.19320000      20.29980000       13       0.69879500      -0.22599700       0.06566500 
Al      3.93341000      18.21410000      22.04110000       13       0.41174900       0.01394700       0.21708700 
Al     22.38320000      10.42850000      20.36450000       13      -0.31632500      -0.60469800      -0.17601500 
Al     24.18348000      15.72290000      20.24410000       13       0.32609700       0.43071600       0.18268700 
Al     12.00620000      13.95970000      22.19720000       13      -0.02576800       1.15524000       0.38197100 
Al     13.78520000      14.47030000      20.21500000       13       0.42203300      -1.58530000      -0.06960500 
Al      0.25104000      12.10370000      20.30230000       13       0.14257800       0.16872100       0.27000900 
Al      2.18818000      14.09900000      20.51680000       13      -0.46324100      -0.19731500      -1.07966800 
Al      2.23818000      12.16850000      22.32290000       13      -0.03604700      -0.93928100      -0.36511300 
Al      0.07886000      14.01320000      22.50880000       13      -0.62585600      -0.73106000      -0.96636500 
Al      3.97459000      10.19290000      22.36040000       13       0.21445700      -0.54462700      -0.17035300 
Al      4.10703000      14.31270000      22.34820000       13       0.10197300       0.34542700       0.12306500 
Al      7.93289000      10.31800000      22.11480000       13       0.72216800      -0.55054400       0.19176000 
Al      6.11540000      14.20400000      24.18050000       13       0.56051700       1.24842300      -0.28158700 
Al      7.77923000      12.30280000      23.91460000       13       0.73875600      -0.13234400       0.44008400 
Al      6.05933000       9.84983000      20.10490000       13       0.49342200       1.24713700       0.32184700 
Al     13.80680000      12.27060000      22.08560000       13       0.84373600      -0.63495100      -0.00175200 
Al      5.72022000      14.30110000      20.21420000       13       0.53011700       0.13593000      -0.11843400 
Al      7.88370000      11.89650000      20.16770000       13       0.18556900       0.13625000      -0.26834200 
Al      8.01887000      13.99360000      21.73200000       13      -0.18142700       0.60962400       0.78688800 
Al     14.05350000      10.07440000      24.09890000       13       0.14717700       0.20485500       0.23547400 
Al     10.01930000      10.35570000      24.04410000       13       0.21542100      -0.65003700       0.11852200 
Al     12.07360000      12.14320000       0.01480000       13      -0.12584000      -0.43178100      -0.81487600 
Al     10.16490000       9.79425000      20.21450000       13      -0.22070000       1.36712300      -0.52531700 
Al     10.29590000      14.19420000      20.20740000       13      -0.25151300       0.25586200      -0.82215100 
Al     10.06270000      12.22920000      22.18040000       13      -0.23241300      -1.02569200      -1.15057500 
Al     13.93990000      10.40180000      20.08370000       13      -0.36483600      -0.91265000      -0.12799800 
Al     12.09660000      10.15680000      22.16030000       13      -0.13764300      -0.01795100      -0.11297800 
Al      5.76775000      12.31590000      21.98890000       13       0.22072700      -0.72737900      -0.11942100 
Al      8.14632000      16.20630000      24.05400000       13       0.36041200       0.05401900      -0.10255700 
Al      5.92785000      18.45890000      23.86620000       13       0.25912300      -1.11386500       0.98940200 